 Entering Gaussian System, Link 0=/share/apps/gaussian/g16/g16
 Initial command:
 /share/apps/gaussian/g16/l1.exe "/scratch/webmo-5066/629738/Gau-155634.inp" -scrdir="/scratch/webmo-5066/629738/"
 Entering Link 1 = /share/apps/gaussian/g16/l1.exe PID=    155635.
  
 Copyright (c) 1988-2019, Gaussian, Inc.  All Rights Reserved.
  
 This is part of the Gaussian(R) 16 program.  It is based on
 the Gaussian(R) 09 system (copyright 2009, Gaussian, Inc.),
 the Gaussian(R) 03 system (copyright 2003, Gaussian, Inc.),
 the Gaussian(R) 98 system (copyright 1998, Gaussian, Inc.),
 the Gaussian(R) 94 system (copyright 1995, Gaussian, Inc.),
 the Gaussian 92(TM) system (copyright 1992, Gaussian, Inc.),
 the Gaussian 90(TM) system (copyright 1990, Gaussian, Inc.),
 the Gaussian 88(TM) system (copyright 1988, Gaussian, Inc.),
 the Gaussian 86(TM) system (copyright 1986, Carnegie Mellon
 University), and the Gaussian 82(TM) system (copyright 1983,
 Carnegie Mellon University). Gaussian is a federally registered
 trademark of Gaussian, Inc.
  
 This software contains proprietary and confidential information,
 including trade secrets, belonging to Gaussian, Inc.
  
 This software is provided under written license and may be
 used, copied, transmitted, or stored only in accord with that
 written license.
  
 The following legend is applicable only to US Government
 contracts under FAR:
  
                    RESTRICTED RIGHTS LEGEND
  
 Use, reproduction and disclosure by the US Government is
 subject to restrictions as set forth in subparagraphs (a)
 and (c) of the Commercial Computer Software - Restricted
 Rights clause in FAR 52.227-19.
  
 Gaussian, Inc.
 340 Quinnipiac St., Bldg. 40, Wallingford CT 06492
  
  
 ---------------------------------------------------------------
 Warning -- This program may not be used in any manner that
 competes with the business of Gaussian, Inc. or will provide
 assistance to any competitor of Gaussian, Inc.  The licensee
 of this program is prohibited from giving any competitor of
 Gaussian, Inc. access to this program.  By using this program,
 the user acknowledges that Gaussian, Inc. is engaged in the
 business of creating and licensing software in the field of
 computational chemistry and represents and warrants to the
 licensee that it is not a competitor of Gaussian, Inc. and that
 it will not use this program in any manner prohibited above.
 ---------------------------------------------------------------
  

 Cite this work as:
 Gaussian 16, Revision C.01,
 M. J. Frisch, G. W. Trucks, H. B. Schlegel, G. E. Scuseria, 
 M. A. Robb, J. R. Cheeseman, G. Scalmani, V. Barone, 
 G. A. Petersson, H. Nakatsuji, X. Li, M. Caricato, A. V. Marenich, 
 J. Bloino, B. G. Janesko, R. Gomperts, B. Mennucci, H. P. Hratchian, 
 J. V. Ortiz, A. F. Izmaylov, J. L. Sonnenberg, D. Williams-Young, 
 F. Ding, F. Lipparini, F. Egidi, J. Goings, B. Peng, A. Petrone, 
 T. Henderson, D. Ranasinghe, V. G. Zakrzewski, J. Gao, N. Rega, 
 G. Zheng, W. Liang, M. Hada, M. Ehara, K. Toyota, R. Fukuda, 
 J. Hasegawa, M. Ishida, T. Nakajima, Y. Honda, O. Kitao, H. Nakai, 
 T. Vreven, K. Throssell, J. A. Montgomery, Jr., J. E. Peralta, 
 F. Ogliaro, M. J. Bearpark, J. J. Heyd, E. N. Brothers, K. N. Kudin, 
 V. N. Staroverov, T. A. Keith, R. Kobayashi, J. Normand, 
 K. Raghavachari, A. P. Rendell, J. C. Burant, S. S. Iyengar, 
 J. Tomasi, M. Cossi, J. M. Millam, M. Klene, C. Adamo, R. Cammi, 
 J. W. Ochterski, R. L. Martin, K. Morokuma, O. Farkas, 
 J. B. Foresman, and D. J. Fox, Gaussian, Inc., Wallingford CT, 2019.
 
 ******************************************
 Gaussian 16:  ES64L-G16RevC.01  3-Jul-2019
                22-Sep-2022 
 ******************************************
 %NProcShared=12
 Will use up to   12 processors via shared memory.
 %mem=36gb
 ----------------------------------------------------------------------
 #N MP2/6-311+G(2d,p) DIIS OPT=(maxstep=10,maxcycles=50,VeryTight) Geom
 =Connectivity FREQ=(anharmonic,vibrot,readanharm)
 ----------------------------------------------------------------------
 1/6=50,7=1,8=10,18=20,19=15,38=1,57=2,80=1/1,3;
 2/9=110,12=2,17=6,18=5,40=1/2;
 3/5=4,6=6,7=112,11=9,25=1,30=1,71=1/1,2,3;
 4//1;
 5/5=2,22=2,38=5/2;
 8/6=4,10=2/1;
 9/15=2,16=-3/6;
 10/5=1/2;
 6/7=2,8=2,9=2,10=2/1;
 7/12=2/1,2,3,16;
 1/6=50,7=1,8=10,18=20,19=15,80=1/3(2);
 2/9=110/2;
 99//99;
 2/9=110/2;
 3/5=4,6=6,7=112,11=9,25=1,30=1,71=1/1,2,3;
 4/5=5,16=3,69=1/1;
 5/5=2,22=2,38=5/2;
 8/6=4,10=2/1;
 9/15=2,16=-3/6;
 10/5=1/2;
 7/12=2/1,2,3,16;
 1/6=50,7=1,8=10,18=20,19=15,80=1/3(-8);
 2/9=110/2;
 6/7=2,8=2,9=2,10=2/1;
 99/9=10/99;
 ------------------------------------
 C5H5N (3-Cyano)Methylenecyclopropane
 ------------------------------------
 Symbolic Z-matrix:
 Charge =  0 Multiplicity = 1
 C                     0.        0.        0. 
 C                     1.29619  -0.43088  -0.5745 
 C                     0.86601   0.91895  -0.90584 
 H                     1.33098   1.76616  -0.41374 
 H                     0.49104   1.11727  -1.90372 
 C                     2.15876  -1.41599  -0.68355 
 H                     1.98405  -2.37197  -0.20448 
 H                     3.0688   -1.30128  -1.26124 
 C                    -1.23483  -0.53513  -0.50774 
 N                    -2.22482  -0.96404  -0.91146 
 H                    -0.02591   0.25283   1.05506 
 

 GradGradGradGradGradGradGradGradGradGradGradGradGradGradGradGradGradGrad
 Berny optimization.
 Initialization pass.
                           ----------------------------
                           !    Initial Parameters    !
                           ! (Angstroms and Degrees)  !
 --------------------------                            --------------------------
 ! Name  Definition              Value          Derivative Info.                !
 --------------------------------------------------------------------------------
 ! R1    R(1,2)                  1.4818         estimate D2E/DX2                !
 ! R2    R(1,3)                  1.554          estimate D2E/DX2                !
 ! R3    R(1,9)                  1.4384         estimate D2E/DX2                !
 ! R4    R(1,11)                 1.0852         estimate D2E/DX2                !
 ! R5    R(2,3)                  1.455          estimate D2E/DX2                !
 ! R6    R(2,6)                  1.3139         estimate D2E/DX2                !
 ! R7    R(3,4)                  1.0845         estimate D2E/DX2                !
 ! R8    R(3,5)                  1.0843         estimate D2E/DX2                !
 ! R9    R(6,7)                  1.0835         estimate D2E/DX2                !
 ! R10   R(6,8)                  1.084          estimate D2E/DX2                !
 ! R11   R(9,10)                 1.152          estimate D2E/DX2                !
 ! A1    A(2,1,9)              120.3911         estimate D2E/DX2                !
 ! A2    A(2,1,11)             117.7452         estimate D2E/DX2                !
 ! A3    A(3,1,9)              119.5146         estimate D2E/DX2                !
 ! A4    A(3,1,11)             116.2463         estimate D2E/DX2                !
 ! A5    A(9,1,11)             114.1639         estimate D2E/DX2                !
 ! A6    A(1,2,6)              145.5318         estimate D2E/DX2                !
 ! A7    A(3,2,6)              150.5497         estimate D2E/DX2                !
 ! A8    A(1,3,4)              115.874          estimate D2E/DX2                !
 ! A9    A(1,3,5)              116.865          estimate D2E/DX2                !
 ! A10   A(2,3,4)              119.6473         estimate D2E/DX2                !
 ! A11   A(2,3,5)              118.7845         estimate D2E/DX2                !
 ! A12   A(4,3,5)              115.0226         estimate D2E/DX2                !
 ! A13   A(2,6,7)              121.2629         estimate D2E/DX2                !
 ! A14   A(2,6,8)              121.0665         estimate D2E/DX2                !
 ! A15   A(7,6,8)              117.6699         estimate D2E/DX2                !
 ! A16   L(1,9,10,5,-1)        180.1416         estimate D2E/DX2                !
 ! A17   L(1,9,10,5,-2)        180.0766         estimate D2E/DX2                !
 ! D1    D(9,1,2,6)            -70.6528         estimate D2E/DX2                !
 ! D2    D(11,1,2,6)            76.9881         estimate D2E/DX2                !
 ! D3    D(9,1,3,4)            140.4673         estimate D2E/DX2                !
 ! D4    D(9,1,3,5)             -0.1264         estimate D2E/DX2                !
 ! D5    D(11,1,3,4)            -3.0072         estimate D2E/DX2                !
 ! D6    D(11,1,3,5)          -143.6008         estimate D2E/DX2                !
 ! D7    D(6,2,3,4)            -77.9997         estimate D2E/DX2                !
 ! D8    D(6,2,3,5)             72.2284         estimate D2E/DX2                !
 ! D9    D(1,2,6,7)             -0.2467         estimate D2E/DX2                !
 ! D10   D(1,2,6,8)            179.4378         estimate D2E/DX2                !
 ! D11   D(3,2,6,7)           -176.9682         estimate D2E/DX2                !
 ! D12   D(3,2,6,8)              2.7163         estimate D2E/DX2                !
 --------------------------------------------------------------------------------
 Trust Radius=1.00D-01 FncErr=1.00D-07 GrdErr=1.00D-07 EigMax=2.50D+02 EigMin=1.00D-04
 Number of steps in this run=     50 maximum allowed number of steps=    100.
 GradGradGradGradGradGradGradGradGradGradGradGradGradGradGradGradGradGrad

                          Input orientation:                          
 ---------------------------------------------------------------------
 Center     Atomic      Atomic             Coordinates (Angstroms)
 Number     Number       Type             X           Y           Z
 ---------------------------------------------------------------------
      1          6           0        0.000000    0.000000    0.000000
      2          6           0        1.296186   -0.430881   -0.574495
      3          6           0        0.866005    0.918952   -0.905835
      4          1           0        1.330982    1.766161   -0.413742
      5          1           0        0.491040    1.117272   -1.903716
      6          6           0        2.158764   -1.415991   -0.683551
      7          1           0        1.984053   -2.371975   -0.204483
      8          1           0        3.068795   -1.301281   -1.261235
      9          6           0       -1.234829   -0.535134   -0.507737
     10          7           0       -2.224822   -0.964036   -0.911461
     11          1           0       -0.025912    0.252828    1.055065
 ---------------------------------------------------------------------
                    Distance matrix (angstroms):
                    1          2          3          4          5
     1  C    0.000000
     2  C    1.481824   0.000000
     3  C    1.554019   1.454954   0.000000
     4  H    2.249893   2.203190   1.084492   0.000000
     5  H    2.261316   2.193597   1.084295   1.829367   0.000000
     6  C    2.670681   1.313916   2.678170   3.299108   3.269178
     7  H    3.099120   2.092347   3.545719   4.194575   4.158284
     8  H    3.563923   2.090778   3.147702   3.625940   3.592632
     9  C    1.438391   2.534041   2.585798   3.447924   2.767278
    10  N    2.590359   3.577052   3.619238   4.510592   3.562628
    11  H    1.085244   2.207004   2.254854   2.507734   3.125522
                    6          7          8          9         10
     6  C    0.000000
     7  H    1.083483   0.000000
     8  H    1.083990   1.854663   0.000000
     9  C    3.510455   3.718487   4.435755   0.000000
    10  N    4.412713   4.494078   5.315868   1.151971   0.000000
    11  H    3.252776   3.537798   4.166259   2.127138   3.191111
                   11
    11  H    0.000000
 Stoichiometry    C5H5N
 Framework group  C1[X(C5H5N)]
 Deg. of freedom    27
 Full point group                 C1      NOp   1
 Largest Abelian subgroup         C1      NOp   1
 Largest concise Abelian subgroup C1      NOp   1
                         Standard orientation:                         
 ---------------------------------------------------------------------
 Center     Atomic      Atomic             Coordinates (Angstroms)
 Number     Number       Type             X           Y           Z
 ---------------------------------------------------------------------
      1          6           0       -0.233142    0.382466    0.598525
      2          6           0        1.063044   -0.048415    0.024030
      3          6           0        0.632863    1.301418   -0.307310
      4          1           0        1.097840    2.148627    0.184783
      5          1           0        0.257898    1.499738   -1.305191
      6          6           0        1.925622   -1.033525   -0.085026
      7          1           0        1.750911   -1.989509    0.394042
      8          1           0        2.835653   -0.918815   -0.662710
      9          6           0       -1.467971   -0.152668    0.090788
     10          7           0       -2.457964   -0.581570   -0.312936
     11          1           0       -0.259054    0.635294    1.653590
 ---------------------------------------------------------------------
 Rotational constants (GHZ):           7.8863634           2.5486634           2.1214205
 Standard basis: 6-311+G(2d,p) (5D, 7F)
 There are   204 symmetry adapted cartesian basis functions of A   symmetry.
 There are   192 symmetry adapted basis functions of A   symmetry.
   192 basis functions,   292 primitive gaussians,   204 cartesian basis functions
    21 alpha electrons       21 beta electrons
       nuclear repulsion energy       190.1825813587 Hartrees.
 NAtoms=   11 NActive=   11 NUniq=   11 SFac= 1.00D+00 NAtFMM=   60 NAOKFM=F Big=F
 Integral buffers will be    131072 words long.
 Raffenetti 1 integral format.
 Two-electron integral symmetry is turned on.
 One-electron integrals computed using PRISM.
 NBasis=   192 RedAO= T EigKep=  1.11D-05  NBF=   192
 NBsUse=   192 1.00D-06 EigRej= -1.00D+00 NBFU=   192
 ExpMin= 4.38D-02 ExpMax= 6.29D+03 ExpMxC= 9.49D+02 IAcc=3 IRadAn=         5 AccDes= 0.00D+00
 Harris functional with IExCor=  205 and IRadAn=       5 diagonalized for initial guess.
 HarFok:  IExCor=  205 AccDes= 0.00D+00 IRadAn=         5 IDoV= 1 UseB2=F ITyADJ=14
 ICtDFT=  3500011 ScaDFX=  1.000000  1.000000  1.000000  1.000000
 FoFCou: FMM=F IPFlag=           0 FMFlag=      100000 FMFlg1=           0
         NFxFlg=           0 DoJE=T BraDBF=F KetDBF=T FulRan=T
         wScrn=  0.000000 ICntrl=       500 IOpCl=  0 I1Cent=   200000004 NGrid=           0
         NMat0=    1 NMatS0=      1 NMatT0=    0 NMatD0=    1 NMtDS0=    0 NMtDT0=    0
 Petite list used in FoFCou.
 Keep R1 ints in memory in canonical form, NReq=175961462.
 Requested convergence on RMS density matrix=1.00D-08 within 128 cycles.
 Requested convergence on MAX density matrix=1.00D-06.
 Requested convergence on             energy=1.00D-06.
 No special actions if energy rises.
 SCF Done:  E(RHF) =  -246.685773292     A.U. after   15 cycles
            NFock= 15  Conv=0.44D-08     -V/T= 2.0012
 ExpMin= 4.38D-02 ExpMax= 6.29D+03 ExpMxC= 9.49D+02 IAcc=3 IRadAn=         5 AccDes= 0.00D+00
 HarFok:  IExCor=  205 AccDes= 0.00D+00 IRadAn=         5 IDoV=-2 UseB2=F ITyADJ=14
 ICtDFT= 12500011 ScaDFX=  1.000000  1.000000  1.000000  1.000000
 Range of M.O.s used for correlation:     7   192
 NBasis=   192 NAE=    21 NBE=    21 NFC=     6 NFV=     0
 NROrb=    186 NOA=    15 NOB=    15 NVA=   171 NVB=   171

 **** Warning!!: The largest alpha MO coefficient is  0.98046480D+02

 Fully direct method using O(ONN) memory.
 JobTyp=1 Pass  1:  I=   7 to  21 NPSUse= 12 ParTrn=T ParDer=T DoDerP=T.
 Spin components of T(2) and E(2):
     alpha-alpha T2 =       0.4166972661D-01 E2=     -0.1136209447D+00
     alpha-beta  T2 =       0.2339048494D+00 E2=     -0.6654127644D+00
     beta-beta   T2 =       0.4166972661D-01 E2=     -0.1136209447D+00
 ANorm=    0.1147712639D+01
 E2 =    -0.8926546538D+00 EUMP2 =    -0.24757842794530D+03
          IDoAtm=11111111111
          Differentiating once with respect to electric field.
                with respect to dipole field.
          Differentiating once with respect to nuclear coordinates.
 Keep R1 ints in memory in canonical form, NReq=175963160.
          There are     1 degrees of freedom in the 1st order CPHF.  IDoFFX=0 NUNeed=     1.
 LinEq1:  Iter=  0 NonCon=     1 RMS=3.89D-03 Max=3.19D-02 NDo=     1
 AX will form     1 AO Fock derivatives at one time.
 LinEq1:  Iter=  1 NonCon=     1 RMS=1.02D-03 Max=8.26D-03 NDo=     1
 LinEq1:  Iter=  2 NonCon=     1 RMS=3.54D-04 Max=3.81D-03 NDo=     1
 LinEq1:  Iter=  3 NonCon=     1 RMS=1.98D-04 Max=3.10D-03 NDo=     1
 LinEq1:  Iter=  4 NonCon=     1 RMS=6.13D-05 Max=7.04D-04 NDo=     1
 LinEq1:  Iter=  5 NonCon=     1 RMS=2.77D-05 Max=3.00D-04 NDo=     1
 LinEq1:  Iter=  6 NonCon=     1 RMS=1.08D-05 Max=1.30D-04 NDo=     1
 LinEq1:  Iter=  7 NonCon=     1 RMS=3.08D-06 Max=3.62D-05 NDo=     1
 LinEq1:  Iter=  8 NonCon=     1 RMS=8.94D-07 Max=6.96D-06 NDo=     1
 LinEq1:  Iter=  9 NonCon=     1 RMS=2.33D-07 Max=2.41D-06 NDo=     1
 LinEq1:  Iter= 10 NonCon=     1 RMS=7.15D-08 Max=6.89D-07 NDo=     1
 LinEq1:  Iter= 11 NonCon=     1 RMS=1.79D-08 Max=1.40D-07 NDo=     1
 LinEq1:  Iter= 12 NonCon=     1 RMS=3.69D-09 Max=2.42D-08 NDo=     1
 LinEq1:  Iter= 13 NonCon=     1 RMS=1.17D-09 Max=1.06D-08 NDo=     1
 LinEq1:  Iter= 14 NonCon=     1 RMS=2.83D-10 Max=2.32D-09 NDo=     1
 LinEq1:  Iter= 15 NonCon=     0 RMS=6.59D-11 Max=6.33D-10 NDo=     1
 Linear equations converged to 1.000D-10 1.000D-09 after    15 iterations.
 End of Minotr F.D. properties file   721 does not exist.
 End of Minotr F.D. properties file   722 does not exist.
 End of Minotr F.D. properties file   788 does not exist.

 **********************************************************************

            Population analysis using the SCF Density.

 **********************************************************************

 Orbital symmetries:
       Occupied  (A) (A) (A) (A) (A) (A) (A) (A) (A) (A) (A) (A)
                 (A) (A) (A) (A) (A) (A) (A) (A) (A)
       Virtual   (A) (A) (A) (A) (A) (A) (A) (A) (A) (A) (A) (A)
                 (A) (A) (A) (A) (A) (A) (A) (A) (A) (A) (A) (A)
                 (A) (A) (A) (A) (A) (A) (A) (A) (A) (A) (A) (A)
                 (A) (A) (A) (A) (A) (A) (A) (A) (A) (A) (A) (A)
                 (A) (A) (A) (A) (A) (A) (A) (A) (A) (A) (A) (A)
                 (A) (A) (A) (A) (A) (A) (A) (A) (A) (A) (A) (A)
                 (A) (A) (A) (A) (A) (A) (A) (A) (A) (A) (A) (A)
                 (A) (A) (A) (A) (A) (A) (A) (A) (A) (A) (A) (A)
                 (A) (A) (A) (A) (A) (A) (A) (A) (A) (A) (A) (A)
                 (A) (A) (A) (A) (A) (A) (A) (A) (A) (A) (A) (A)
                 (A) (A) (A) (A) (A) (A) (A) (A) (A) (A) (A) (A)
                 (A) (A) (A) (A) (A) (A) (A) (A) (A) (A) (A) (A)
                 (A) (A) (A) (A) (A) (A) (A) (A) (A) (A) (A) (A)
                 (A) (A) (A) (A) (A) (A) (A) (A) (A) (A) (A) (A)
                 (A) (A) (A)
 The electronic state is 1-A.
 Alpha  occ. eigenvalues --  -15.56855 -11.29704 -11.28027 -11.27683 -11.27541
 Alpha  occ. eigenvalues --  -11.25575  -1.22994  -1.18905  -1.01497  -0.91979
 Alpha  occ. eigenvalues --   -0.78531  -0.72113  -0.67900  -0.63171  -0.59491
 Alpha  occ. eigenvalues --   -0.55513  -0.52998  -0.49931  -0.44733  -0.42643
 Alpha  occ. eigenvalues --   -0.39586
 Alpha virt. eigenvalues --    0.05527   0.07146   0.07397   0.07692   0.09855
 Alpha virt. eigenvalues --    0.10408   0.10842   0.12140   0.13195   0.14574
 Alpha virt. eigenvalues --    0.15501   0.16531   0.16792   0.17191   0.18606
 Alpha virt. eigenvalues --    0.19167   0.19449   0.20461   0.22127   0.22340
 Alpha virt. eigenvalues --    0.24269   0.25226   0.27019   0.28681   0.29735
 Alpha virt. eigenvalues --    0.31808   0.33367   0.34647   0.35327   0.35460
 Alpha virt. eigenvalues --    0.36543   0.37934   0.39393   0.42057   0.44925
 Alpha virt. eigenvalues --    0.47163   0.48897   0.55777   0.58994   0.62101
 Alpha virt. eigenvalues --    0.62326   0.65594   0.67345   0.69121   0.72379
 Alpha virt. eigenvalues --    0.74520   0.75508   0.76909   0.77634   0.78900
 Alpha virt. eigenvalues --    0.81693   0.82590   0.82865   0.84153   0.84617
 Alpha virt. eigenvalues --    0.86668   0.87535   0.88671   0.89169   0.91288
 Alpha virt. eigenvalues --    0.93258   0.95885   0.97130   1.04549   1.05421
 Alpha virt. eigenvalues --    1.06556   1.08699   1.09669   1.12814   1.14592
 Alpha virt. eigenvalues --    1.19965   1.21476   1.25227   1.28523   1.29342
 Alpha virt. eigenvalues --    1.31993   1.32212   1.36737   1.41909   1.44532
 Alpha virt. eigenvalues --    1.46581   1.52308   1.54248   1.56312   1.58871
 Alpha virt. eigenvalues --    1.61890   1.62395   1.65313   1.67991   1.74253
 Alpha virt. eigenvalues --    1.79542   1.80551   1.96834   2.00264   2.06501
 Alpha virt. eigenvalues --    2.08785   2.13393   2.17042   2.19768   2.24215
 Alpha virt. eigenvalues --    2.31091   2.33820   2.41922   2.49995   2.51198
 Alpha virt. eigenvalues --    2.53390   2.56867   2.66823   2.70008   2.71616
 Alpha virt. eigenvalues --    2.73342   2.76869   2.98583   3.08121   3.09580
 Alpha virt. eigenvalues --    3.12935   3.16476   3.25406   3.25821   3.26827
 Alpha virt. eigenvalues --    3.29554   3.38957   3.39438   3.43826   3.47259
 Alpha virt. eigenvalues --    3.51385   3.53814   3.58165   3.60321   3.63076
 Alpha virt. eigenvalues --    3.64406   3.68020   3.70431   3.72024   3.74740
 Alpha virt. eigenvalues --    3.75824   3.78922   3.84332   3.87624   3.90954
 Alpha virt. eigenvalues --    3.91488   3.94718   3.97290   4.01360   4.08447
 Alpha virt. eigenvalues --    4.10502   4.15482   4.19829   4.25788   4.31041
 Alpha virt. eigenvalues --    4.46518   4.51575   4.54121   4.58343   4.62713
 Alpha virt. eigenvalues --    4.73400   4.85044   5.11449   5.19119   5.26707
 Alpha virt. eigenvalues --    5.26967   5.37448   5.60519   5.63891   6.19166
 Alpha virt. eigenvalues --   24.88163  25.09236  25.22886  25.39683  25.44281
 Alpha virt. eigenvalues --   37.27610
          Condensed to atoms (all electrons):
               1          2          3          4          5          6
     1  C    5.728079   0.054987  -0.621717  -0.077374  -0.043000   0.282705
     2  C    0.054987   5.155682   0.293395  -0.022320   0.019699   0.147682
     3  C   -0.621717   0.293395   6.292913   0.449864   0.385956  -0.548346
     4  H   -0.077374  -0.022320   0.449864   0.521991  -0.029809   0.008794
     5  H   -0.043000   0.019699   0.385956  -0.029809   0.505843   0.019067
     6  C    0.282705   0.147682  -0.548346   0.008794   0.019067   5.928496
     7  H    0.007354  -0.018311   0.011931  -0.000195  -0.000151   0.385018
     8  H    0.013953  -0.008690   0.000468   0.000602   0.000512   0.371396
     9  C   -0.267934   0.033467   0.355248   0.015002  -0.006808  -0.164267
    10  N    0.090852  -0.002921   0.003324  -0.000176   0.000384  -0.008668
    11  H    0.471551   0.004713  -0.100127  -0.003232   0.001203   0.031156
               7          8          9         10         11
     1  C    0.007354   0.013953  -0.267934   0.090852   0.471551
     2  C   -0.018311  -0.008690   0.033467  -0.002921   0.004713
     3  C    0.011931   0.000468   0.355248   0.003324  -0.100127
     4  H   -0.000195   0.000602   0.015002  -0.000176  -0.003232
     5  H   -0.000151   0.000512  -0.006808   0.000384   0.001203
     6  C    0.385018   0.371396  -0.164267  -0.008668   0.031156
     7  H    0.519900  -0.029542  -0.005377   0.000670   0.000639
     8  H   -0.029542   0.527968  -0.000384  -0.000134  -0.000219
     9  C   -0.005377  -0.000384   5.579658   0.547558  -0.046566
    10  N    0.000670  -0.000134   0.547558   6.726637  -0.006194
    11  H    0.000639  -0.000219  -0.046566  -0.006194   0.519455
 Mulliken charges:
               1
     1  C    0.360543
     2  C    0.342617
     3  C   -0.522908
     4  H    0.136852
     5  H    0.147104
     6  C   -0.453033
     7  H    0.128065
     8  H    0.124071
     9  C   -0.039598
    10  N   -0.351333
    11  H    0.127620
 Sum of Mulliken charges =  -0.00000
 Mulliken charges with hydrogens summed into heavy atoms:
               1
     1  C    0.488164
     2  C    0.342617
     3  C   -0.238952
     6  C   -0.200898
     9  C   -0.039598
    10  N   -0.351333
 Electronic spatial extent (au):  <R**2>=            584.2177
 Charge=             -0.0000 electrons
 Dipole moment (field-independent basis, Debye):
    X=              4.0768    Y=              1.7122    Z=              1.0735  Tot=              4.5502
 Quadrupole moment (field-independent basis, Debye-Ang):
   XX=            -45.0306   YY=            -33.5446   ZZ=            -34.6231
   XY=             -3.5220   XZ=             -2.9440   YZ=             -0.8040
 Traceless Quadrupole moment (field-independent basis, Debye-Ang):
   XX=             -7.2978   YY=              4.1881   ZZ=              3.1097
   XY=             -3.5220   XZ=             -2.9440   YZ=             -0.8040
 Octapole moment (field-independent basis, Debye-Ang**2):
  XXX=             36.9370  YYY=              2.3525  ZZZ=              2.2732  XYY=              7.9996
  XXY=              4.6485  XXZ=              1.4861  XZZ=             -0.2866  YZZ=              3.6222
  YYZ=              1.6491  XYZ=              1.4301
 Hexadecapole moment (field-independent basis, Debye-Ang**3):
 XXXX=           -616.4325 YYYY=           -179.5877 ZZZZ=            -71.3336 XXXY=            -30.4849
 XXXZ=            -26.0706 YYYX=             -3.1376 YYYZ=             -3.8331 ZZZX=             -3.4238
 ZZZY=             -0.7272 XXYY=           -122.3214 XXZZ=           -108.0282 YYZZ=            -43.2870
 XXYZ=             -0.4843 YYXZ=              1.4994 ZZXY=             -0.6311
 N-N= 1.901825813587D+02 E-N=-9.549742773312D+02  KE= 2.463849703373D+02
 Calling FoFJK, ICntrl=  10002127 FMM=F ISym2X=0 I1Cent= 0 IOpClX= 0 NMat=1 NMatS=1 NMatT=0.
 ***** Axes restored to original set *****
 -------------------------------------------------------------------
 Center     Atomic                   Forces (Hartrees/Bohr)
 Number     Number              X              Y              Z
 -------------------------------------------------------------------
      1        6           0.000724750    0.000321156    0.002278651
      2        6          -0.007035215    0.004794304    0.001535016
      3        6          -0.001167061    0.003938680   -0.000908015
      4        1           0.000285791   -0.000408641    0.000796054
      5        1          -0.000748183   -0.001034760   -0.000451334
      6        6           0.007312094   -0.008246718   -0.001079320
      7        1          -0.000806984   -0.000253721    0.000645323
      8        1           0.000252259    0.000735824   -0.000518940
      9        6           0.036719597    0.015567878    0.012515802
     10        7          -0.036432239   -0.015852032   -0.014749455
     11        1           0.000895191    0.000438030   -0.000063783
 -------------------------------------------------------------------
 Cartesian Forces:  Max     0.036719597 RMS     0.010688695

 GradGradGradGradGradGradGradGradGradGradGradGradGradGradGradGradGradGrad
 Berny optimization.
 FormGI is forming the generalized inverse of G from B-inverse, IUseBI=4.
 Internal  Forces:  Max     0.042380719 RMS     0.006948386
 Search for a local minimum.
 Step number   1 out of a maximum of   50
 All quantities printed in internal units (Hartrees-Bohrs-Radians)
 Mixed Optimization -- RFO/linear search
 Second derivative matrix not updated -- first step.
 ITU=  0
     Eigenvalues ---    0.02002   0.02254   0.03227   0.03228   0.03598
     Eigenvalues ---    0.04009   0.04973   0.04973   0.09845   0.11364
     Eigenvalues ---    0.12186   0.13686   0.16000   0.16000   0.18806
     Eigenvalues ---    0.24972   0.26521   0.31959   0.35368   0.35457
     Eigenvalues ---    0.35480   0.35517   0.35577   0.35843   0.39807
     Eigenvalues ---    0.63472   1.33196
 RFO step:  Lambda=-1.64526932D-03 EMin= 2.00247698D-02
 Linear search not attempted -- first point.
 Iteration  1 RMS(Cart)=  0.00877350 RMS(Int)=  0.00002905
 Iteration  2 RMS(Cart)=  0.00003802 RMS(Int)=  0.00000395
 Iteration  3 RMS(Cart)=  0.00000000 RMS(Int)=  0.00000395
 Variable       Old X    -DE/DX   Delta X   Delta X   Delta X     New X
                                 (Linear)    (Quad)   (Total)
    R1        2.80024  -0.00090   0.00000  -0.00318  -0.00318   2.79706
    R2        2.93667  -0.00071   0.00000  -0.00191  -0.00191   2.93476
    R3        2.71816   0.00065   0.00000   0.00162   0.00162   2.71978
    R4        2.05081   0.00002   0.00000   0.00005   0.00005   2.05087
    R5        2.74946   0.00304   0.00000   0.00804   0.00804   2.75751
    R6        2.48294   0.01034   0.00000   0.01624   0.01624   2.49919
    R7        2.04939   0.00016   0.00000   0.00046   0.00046   2.04985
    R8        2.04902   0.00048   0.00000   0.00136   0.00136   2.05038
    R9        2.04749   0.00064   0.00000   0.00179   0.00179   2.04927
   R10        2.04844   0.00057   0.00000   0.00159   0.00159   2.05003
   R11        2.17691   0.04238   0.00000   0.03178   0.03178   2.20869
    A1        2.10122  -0.00177   0.00000  -0.00898  -0.00898   2.09224
    A2        2.05504  -0.00008   0.00000   0.00025   0.00025   2.05529
    A3        2.08592  -0.00186   0.00000  -0.00960  -0.00960   2.07632
    A4        2.02888  -0.00030   0.00000  -0.00233  -0.00234   2.02654
    A5        1.99254   0.00186   0.00000   0.01080   0.01081   2.00334
    A6        2.54001   0.00032   0.00000   0.00059   0.00059   2.54060
    A7        2.62759   0.00043   0.00000   0.00119   0.00119   2.62878
    A8        2.02238  -0.00002   0.00000  -0.00095  -0.00095   2.02143
    A9        2.03968  -0.00068   0.00000  -0.00591  -0.00592   2.03376
   A10        2.08824   0.00024   0.00000  -0.00262  -0.00262   2.08562
   A11        2.07318  -0.00068   0.00000  -0.00315  -0.00316   2.07002
   A12        2.00752   0.00093   0.00000   0.00826   0.00827   2.01579
   A13        2.11644  -0.00065   0.00000  -0.00403  -0.00403   2.11241
   A14        2.11301  -0.00043   0.00000  -0.00268  -0.00268   2.11032
   A15        2.05373   0.00109   0.00000   0.00671   0.00671   2.06044
   A16        3.14406   0.00027   0.00000   0.00533   0.00533   3.14939
   A17        3.14293  -0.00003   0.00000  -0.00060  -0.00060   3.14233
    D1       -1.23312  -0.00066   0.00000  -0.00419  -0.00419  -1.23731
    D2        1.34370  -0.00003   0.00000   0.00327   0.00327   1.34696
    D3        2.45162   0.00065   0.00000   0.00837   0.00836   2.45998
    D4       -0.00221  -0.00003   0.00000   0.00315   0.00315   0.00095
    D5       -0.05248   0.00045   0.00000   0.00621   0.00620  -0.04628
    D6       -2.50631  -0.00023   0.00000   0.00099   0.00100  -2.50531
    D7       -1.36135  -0.00071   0.00000  -0.00303  -0.00302  -1.36438
    D8        1.26062   0.00057   0.00000   0.00464   0.00463   1.26525
    D9       -0.00431  -0.00025   0.00000  -0.00325  -0.00325  -0.00756
   D10        3.13178  -0.00025   0.00000  -0.00336  -0.00336   3.12842
   D11       -3.08868   0.00014   0.00000   0.00008   0.00008  -3.08860
   D12        0.04741   0.00014   0.00000  -0.00002  -0.00002   0.04739
         Item               Value     Threshold  Converged?
 Maximum Force            0.042381     0.000002     NO 
 RMS     Force            0.006948     0.000001     NO 
 Maximum Displacement     0.023322     0.000006     NO 
 RMS     Displacement     0.008783     0.000004     NO 
 Predicted change in Energy=-8.243182D-04
 GradGradGradGradGradGradGradGradGradGradGradGradGradGradGradGradGradGrad

                          Input orientation:                          
 ---------------------------------------------------------------------
 Center     Atomic      Atomic             Coordinates (Angstroms)
 Number     Number       Type             X           Y           Z
 ---------------------------------------------------------------------
      1          6           0        0.003302    0.003993    0.004835
      2          6           0        1.295735   -0.429410   -0.571874
      3          6           0        0.863159    0.924054   -0.903997
      4          1           0        1.331029    1.770115   -0.412133
      5          1           0        0.479053    1.116848   -1.900265
      6          6           0        2.161982   -1.422449   -0.683803
      7          1           0        1.984350   -2.376477   -0.199793
      8          1           0        3.069202   -1.307500   -1.267405
      9          6           0       -1.228240   -0.532174   -0.512139
     10          7           0       -2.230118   -0.971309   -0.923802
     11          1           0       -0.019191    0.260225    1.059186
 ---------------------------------------------------------------------
                    Distance matrix (angstroms):
                    1          2          3          4          5
     1  C    0.000000
     2  C    1.480140   0.000000
     3  C    1.553010   1.459209   0.000000
     4  H    2.248535   2.205600   1.084736   0.000000
     5  H    2.257032   2.196020   1.085015   1.834982   0.000000
     6  C    2.677472   1.322512   2.691003   3.310098   3.280253
     7  H    3.103717   2.098501   3.556188   4.203111   4.166634
     8  H    3.569083   2.097616   3.158880   3.636544   3.603727
     9  C    1.439248   2.526773   2.578391   3.443892   2.749730
    10  N    2.608016   3.584570   3.627830   4.523160   3.557173
    11  H    1.085272   2.205670   2.252398   2.503525   3.120961
                    6          7          8          9         10
     6  C    0.000000
     7  H    1.084430   0.000000
     8  H    1.084829   1.859949   0.000000
     9  C    3.509368   3.717493   4.431655   0.000000
    10  N    4.421726   4.501158   5.321079   1.168787   0.000000
    11  H    3.259895   3.542796   4.172405   2.135125   3.215139
                   11
    11  H    0.000000
 Stoichiometry    C5H5N
 Framework group  C1[X(C5H5N)]
 Deg. of freedom    27
 Full point group                 C1      NOp   1
 Largest Abelian subgroup         C1      NOp   1
 Largest concise Abelian subgroup C1      NOp   1
                         Standard orientation:                         
 ---------------------------------------------------------------------
 Center     Atomic      Atomic             Coordinates (Angstroms)
 Number     Number       Type             X           Y           Z
 ---------------------------------------------------------------------
      1          6           0       -0.228202    0.389967    0.603220
      2          6           0        1.062277   -0.046480    0.024437
      3          6           0        0.628385    1.305082   -0.313658
      4          1           0        1.097852    2.153897    0.171899
      5          1           0        0.240803    1.492328   -1.309638
      6          6           0        1.928254   -1.040032   -0.085006
      7          1           0        1.752420   -1.991389    0.404880
      8          1           0        2.833432   -0.928214   -0.672377
      9          6           0       -1.461463   -0.149178    0.093489
     10          7           0       -2.464707   -0.590685   -0.312266
     11          1           0       -0.247072    0.652019    1.656210
 ---------------------------------------------------------------------
 Rotational constants (GHZ):           7.8037248           2.5438206           2.1147683
 Standard basis: 6-311+G(2d,p) (5D, 7F)
 There are   204 symmetry adapted cartesian basis functions of A   symmetry.
 There are   192 symmetry adapted basis functions of A   symmetry.
   192 basis functions,   292 primitive gaussians,   204 cartesian basis functions
    21 alpha electrons       21 beta electrons
       nuclear repulsion energy       189.6414984004 Hartrees.
 NAtoms=   11 NActive=   11 NUniq=   11 SFac= 1.00D+00 NAtFMM=   60 NAOKFM=F Big=F
 Integral buffers will be    131072 words long.
 Raffenetti 1 integral format.
 Two-electron integral symmetry is turned on.
 One-electron integrals computed using PRISM.
 NBasis=   192 RedAO= T EigKep=  1.14D-05  NBF=   192
 NBsUse=   192 1.00D-06 EigRej= -1.00D+00 NBFU=   192
 Initial guess from the checkpoint file:  "/scratch/webmo-5066/629738/Gau-155635.chk"
 B after Tr=     0.000000    0.000000    0.000000
         Rot=    0.999997    0.002194   -0.000808   -0.000279 Ang=   0.27 deg.
 ExpMin= 4.38D-02 ExpMax= 6.29D+03 ExpMxC= 9.49D+02 IAcc=3 IRadAn=         5 AccDes= 0.00D+00
 Harris functional with IExCor=  205 and IRadAn=       5 diagonalized for initial guess.
 HarFok:  IExCor=  205 AccDes= 0.00D+00 IRadAn=         5 IDoV= 1 UseB2=F ITyADJ=14
 ICtDFT=  3500011 ScaDFX=  1.000000  1.000000  1.000000  1.000000
 FoFCou: FMM=F IPFlag=           0 FMFlag=      100000 FMFlg1=           0
         NFxFlg=           0 DoJE=T BraDBF=F KetDBF=T FulRan=T
         wScrn=  0.000000 ICntrl=       500 IOpCl=  0 I1Cent=   200000004 NGrid=           0
         NMat0=    1 NMatS0=      1 NMatT0=    0 NMatD0=    1 NMtDS0=    0 NMtDT0=    0
 Petite list used in FoFCou.
 Keep R1 ints in memory in canonical form, NReq=175961462.
 Requested convergence on RMS density matrix=1.00D-08 within 128 cycles.
 Requested convergence on MAX density matrix=1.00D-06.
 Requested convergence on             energy=1.00D-06.
 No special actions if energy rises.
 SCF Done:  E(RHF) =  -246.682719379     A.U. after   13 cycles
            NFock= 13  Conv=0.27D-08     -V/T= 2.0017
 ExpMin= 4.38D-02 ExpMax= 6.29D+03 ExpMxC= 9.49D+02 IAcc=3 IRadAn=         5 AccDes= 0.00D+00
 HarFok:  IExCor=  205 AccDes= 0.00D+00 IRadAn=         5 IDoV=-2 UseB2=F ITyADJ=14
 ICtDFT= 12500011 ScaDFX=  1.000000  1.000000  1.000000  1.000000
 Range of M.O.s used for correlation:     7   192
 NBasis=   192 NAE=    21 NBE=    21 NFC=     6 NFV=     0
 NROrb=    186 NOA=    15 NOB=    15 NVA=   171 NVB=   171

 **** Warning!!: The largest alpha MO coefficient is  0.96329119D+02

 Fully direct method using O(ONN) memory.
 JobTyp=1 Pass  1:  I=   7 to  21 NPSUse= 12 ParTrn=T ParDer=T DoDerP=T.
 Spin components of T(2) and E(2):
     alpha-alpha T2 =       0.4225328085D-01 E2=     -0.1142037635D+00
     alpha-beta  T2 =       0.2369149508D+00 E2=     -0.6682405009D+00
     beta-beta   T2 =       0.4225328085D-01 E2=     -0.1142037635D+00
 ANorm=    0.1149530997D+01
 E2 =    -0.8966480279D+00 EUMP2 =    -0.24757936740735D+03
          IDoAtm=11111111111
          Differentiating once with respect to electric field.
                with respect to dipole field.
          Differentiating once with respect to nuclear coordinates.
 Keep R1 ints in memory in canonical form, NReq=175963160.
          There are     1 degrees of freedom in the 1st order CPHF.  IDoFFX=0 NUNeed=     1.
 LinEq1:  Iter=  0 NonCon=     1 RMS=3.97D-03 Max=3.27D-02 NDo=     1
 AX will form     1 AO Fock derivatives at one time.
 LinEq1:  Iter=  1 NonCon=     1 RMS=1.06D-03 Max=9.27D-03 NDo=     1
 LinEq1:  Iter=  2 NonCon=     1 RMS=3.81D-04 Max=3.36D-03 NDo=     1
 LinEq1:  Iter=  3 NonCon=     1 RMS=2.18D-04 Max=3.75D-03 NDo=     1
 LinEq1:  Iter=  4 NonCon=     1 RMS=7.03D-05 Max=6.61D-04 NDo=     1
 LinEq1:  Iter=  5 NonCon=     1 RMS=3.18D-05 Max=3.67D-04 NDo=     1
 LinEq1:  Iter=  6 NonCon=     1 RMS=1.21D-05 Max=1.17D-04 NDo=     1
 LinEq1:  Iter=  7 NonCon=     1 RMS=3.40D-06 Max=3.97D-05 NDo=     1
 LinEq1:  Iter=  8 NonCon=     1 RMS=9.81D-07 Max=6.77D-06 NDo=     1
 LinEq1:  Iter=  9 NonCon=     1 RMS=2.57D-07 Max=2.61D-06 NDo=     1
 LinEq1:  Iter= 10 NonCon=     1 RMS=7.93D-08 Max=7.36D-07 NDo=     1
 LinEq1:  Iter= 11 NonCon=     1 RMS=1.97D-08 Max=1.49D-07 NDo=     1
 LinEq1:  Iter= 12 NonCon=     1 RMS=4.04D-09 Max=2.68D-08 NDo=     1
 LinEq1:  Iter= 13 NonCon=     1 RMS=1.28D-09 Max=1.20D-08 NDo=     1
 LinEq1:  Iter= 14 NonCon=     1 RMS=3.13D-10 Max=2.67D-09 NDo=     1
 LinEq1:  Iter= 15 NonCon=     0 RMS=7.20D-11 Max=7.21D-10 NDo=     1
 Linear equations converged to 1.000D-10 1.000D-09 after    15 iterations.
 End of Minotr F.D. properties file   721 does not exist.
 End of Minotr F.D. properties file   722 does not exist.
 End of Minotr F.D. properties file   788 does not exist.
 Calling FoFJK, ICntrl=  10002127 FMM=F ISym2X=0 I1Cent= 0 IOpClX= 0 NMat=1 NMatS=1 NMatT=0.
 ***** Axes restored to original set *****
 -------------------------------------------------------------------
 Center     Atomic                   Forces (Hartrees/Bohr)
 Number     Number              X              Y              Z
 -------------------------------------------------------------------
      1        6          -0.000174916    0.000005526    0.001644590
      2        6          -0.000349935   -0.000356656   -0.000141525
      3        6          -0.000049925    0.001574721   -0.001012870
      4        1           0.000126864   -0.000392539    0.000263817
      5        1          -0.000076082   -0.000595405    0.000044372
      6        6           0.000882609   -0.000884811   -0.000270663
      7        1          -0.000459334    0.000324410    0.000184705
      8        1          -0.000301824    0.000441745   -0.000026393
      9        6           0.006038604    0.002402937    0.001921656
     10        7          -0.005665213   -0.002486505   -0.002564066
     11        1           0.000029153   -0.000033423   -0.000043625
 -------------------------------------------------------------------
 Cartesian Forces:  Max     0.006038604 RMS     0.001742298

 GradGradGradGradGradGradGradGradGradGradGradGradGradGradGradGradGradGrad
 Berny optimization.
 Using GEDIIS/GDIIS optimizer.
 FormGI is forming the generalized inverse of G from B-inverse, IUseBI=4.
 Internal  Forces:  Max     0.006693510 RMS     0.001109969
 Search for a local minimum.
 Step number   2 out of a maximum of   50
 All quantities printed in internal units (Hartrees-Bohrs-Radians)
 Mixed Optimization -- RFO/linear search
 Update second derivatives using D2CorX and points    1    2
 DE= -9.39D-04 DEPred=-8.24D-04 R= 1.14D+00
 TightC=F SS=  1.41D+00  RLast= 4.56D-02 DXNew= 1.6818D-01 1.3675D-01
 Trust test= 1.14D+00 RLast= 4.56D-02 DXMaxT set to 1.37D-01
 ITU=  1  0
 Use linear search instead of GDIIS.
     Eigenvalues ---    0.02004   0.02257   0.03227   0.03228   0.03582
     Eigenvalues ---    0.04032   0.04972   0.04990   0.09873   0.11360
     Eigenvalues ---    0.12079   0.13567   0.15843   0.16000   0.18504
     Eigenvalues ---    0.24968   0.26607   0.31968   0.35368   0.35457
     Eigenvalues ---    0.35486   0.35527   0.35591   0.35786   0.39817
     Eigenvalues ---    0.64466   1.16136
 RFO step:  Lambda=-3.74267639D-05 EMin= 2.00374990D-02
 Quartic linear search produced a step of  0.19752.
 Iteration  1 RMS(Cart)=  0.00691132 RMS(Int)=  0.00003612
 Iteration  2 RMS(Cart)=  0.00005120 RMS(Int)=  0.00000409
 Iteration  3 RMS(Cart)=  0.00000000 RMS(Int)=  0.00000409
 Variable       Old X    -DE/DX   Delta X   Delta X   Delta X     New X
                                 (Linear)    (Quad)   (Total)
    R1        2.79706  -0.00008  -0.00063   0.00000  -0.00062   2.79644
    R2        2.93476   0.00051  -0.00038   0.00309   0.00272   2.93748
    R3        2.71978  -0.00006   0.00032  -0.00043  -0.00011   2.71968
    R4        2.05087  -0.00005   0.00001  -0.00018  -0.00017   2.05070
    R5        2.75751   0.00039   0.00159  -0.00027   0.00131   2.75882
    R6        2.49919   0.00018   0.00321  -0.00233   0.00088   2.50007
    R7        2.04985  -0.00013   0.00009  -0.00052  -0.00043   2.04943
    R8        2.05038  -0.00012   0.00027  -0.00061  -0.00034   2.05004
    R9        2.04927  -0.00013   0.00035  -0.00071  -0.00035   2.04892
   R10        2.05003  -0.00019   0.00031  -0.00089  -0.00058   2.04945
   R11        2.20869   0.00669   0.00628   0.00061   0.00688   2.21557
    A1        2.09224  -0.00079  -0.00177  -0.00496  -0.00674   2.08550
    A2        2.05529   0.00034   0.00005   0.00234   0.00239   2.05768
    A3        2.07632  -0.00078  -0.00190  -0.00378  -0.00568   2.07063
    A4        2.02654   0.00026  -0.00046   0.00249   0.00203   2.02857
    A5        2.00334   0.00056   0.00213   0.00268   0.00482   2.00816
    A6        2.54060  -0.00005   0.00012  -0.00063  -0.00052   2.54009
    A7        2.62878  -0.00010   0.00024  -0.00078  -0.00054   2.62824
    A8        2.02143  -0.00000  -0.00019   0.00075   0.00056   2.02199
    A9        2.03376  -0.00026  -0.00117  -0.00065  -0.00183   2.03193
   A10        2.08562   0.00014  -0.00052  -0.00290  -0.00343   2.08219
   A11        2.07002  -0.00047  -0.00062  -0.00279  -0.00342   2.06660
   A12        2.01579   0.00044   0.00163   0.00404   0.00566   2.02146
   A13        2.11241  -0.00045  -0.00080  -0.00282  -0.00362   2.10879
   A14        2.11032  -0.00029  -0.00053  -0.00182  -0.00235   2.10797
   A15        2.06044   0.00074   0.00133   0.00465   0.00597   2.06641
   A16        3.14939  -0.00045   0.00105  -0.01096  -0.00990   3.13949
   A17        3.14233  -0.00015  -0.00012  -0.00363  -0.00375   3.13858
    D1       -1.23731  -0.00045  -0.00083  -0.00144  -0.00225  -1.23956
    D2        1.34696  -0.00006   0.00064  -0.00043   0.00021   1.34717
    D3        2.45998   0.00048   0.00165   0.00863   0.01027   2.47025
    D4        0.00095   0.00006   0.00062   0.00132   0.00194   0.00288
    D5       -0.04628   0.00020   0.00123   0.00539   0.00662  -0.03966
    D6       -2.50531  -0.00022   0.00020  -0.00192  -0.00172  -2.50703
    D7       -1.36438  -0.00028  -0.00060   0.00075   0.00016  -1.36422
    D8        1.26525   0.00006   0.00091  -0.00161  -0.00070   1.26455
    D9       -0.00756  -0.00013  -0.00064  -0.00227  -0.00291  -0.01047
   D10        3.12842  -0.00012  -0.00066  -0.00192  -0.00259   3.12584
   D11       -3.08860   0.00007   0.00002  -0.00018  -0.00017  -3.08876
   D12        0.04739   0.00008  -0.00000   0.00017   0.00016   0.04755
         Item               Value     Threshold  Converged?
 Maximum Force            0.006694     0.000002     NO 
 RMS     Force            0.001110     0.000001     NO 
 Maximum Displacement     0.025202     0.000006     NO 
 RMS     Displacement     0.006942     0.000004     NO 
 Predicted change in Energy=-4.060908D-05
 GradGradGradGradGradGradGradGradGradGradGradGradGradGradGradGradGradGrad

                          Input orientation:                          
 ---------------------------------------------------------------------
 Center     Atomic      Atomic             Coordinates (Angstroms)
 Number     Number       Type             X           Y           Z
 ---------------------------------------------------------------------
      1          6           0        0.004716    0.005452    0.011078
      2          6           0        1.294619   -0.428525   -0.570001
      3          6           0        0.861577    0.925254   -0.903286
      4          1           0        1.335107    1.769490   -0.414206
      5          1           0        0.473693    1.112622   -1.898927
      6          6           0        2.159894   -1.422734   -0.684536
      7          1           0        1.980981   -2.374020   -0.196041
      8          1           0        3.063164   -1.307232   -1.273565
      9          6           0       -1.223976   -0.533382   -0.509734
     10          7           0       -2.223082   -0.973501   -0.937139
     11          1           0       -0.016431    0.262491    1.065167
 ---------------------------------------------------------------------
                    Distance matrix (angstroms):
                    1          2          3          4          5
     1  C    0.000000
     2  C    1.479810   0.000000
     3  C    1.554447   1.459905   0.000000
     4  H    2.250030   2.203901   1.084511   0.000000
     5  H    2.256963   2.194332   1.084832   1.837908   0.000000
     6  C    2.677384   1.322979   2.691938   3.308118   3.278116
     7  H    3.100066   2.096638   3.555063   4.199217   4.162740
     8  H    3.567569   2.096397   3.157228   3.631927   3.598907
     9  C    1.439191   2.521497   2.575273   3.444017   2.742492
    10  N    2.611618   3.578548   3.622366   4.523071   3.542533
    11  H    1.085182   2.206837   2.254985   2.507238   3.122306
                    6          7          8          9         10
     6  C    0.000000
     7  H    1.084243   0.000000
     8  H    1.084524   1.862852   0.000000
     9  C    3.503153   3.709191   4.422878   0.000000
    10  N    4.413173   4.492752   5.307443   1.172430   0.000000
    11  H    3.261569   3.539984   4.173440   2.138199   3.225867
                   11
    11  H    0.000000
 Stoichiometry    C5H5N
 Framework group  C1[X(C5H5N)]
 Deg. of freedom    27
 Full point group                 C1      NOp   1
 Largest Abelian subgroup         C1      NOp   1
 Largest concise Abelian subgroup C1      NOp   1
                         Standard orientation:                         
 ---------------------------------------------------------------------
 Center     Atomic      Atomic             Coordinates (Angstroms)
 Number     Number       Type             X           Y           Z
 ---------------------------------------------------------------------
      1          6           0       -0.226244    0.394136    0.609039
      2          6           0        1.060086   -0.046108    0.024763
      3          6           0        0.625847    1.304676   -0.318951
      4          1           0        1.102607    2.153270    0.159330
      5          1           0        0.232368    1.482753   -1.314101
      6          6           0        1.924176   -1.041861   -0.085219
      7          1           0        1.747568   -1.988338    0.413353
      8          1           0        2.824120   -0.932505   -0.680480
      9          6           0       -1.458176   -0.148941    0.100431
     10          7           0       -2.459940   -0.592547   -0.317031
     11          1           0       -0.241223    0.661237    1.660730
 ---------------------------------------------------------------------
 Rotational constants (GHZ):           7.7674318           2.5512375           2.1211863
 Standard basis: 6-311+G(2d,p) (5D, 7F)
 There are   204 symmetry adapted cartesian basis functions of A   symmetry.
 There are   192 symmetry adapted basis functions of A   symmetry.
   192 basis functions,   292 primitive gaussians,   204 cartesian basis functions
    21 alpha electrons       21 beta electrons
       nuclear repulsion energy       189.6273323194 Hartrees.
 NAtoms=   11 NActive=   11 NUniq=   11 SFac= 1.00D+00 NAtFMM=   60 NAOKFM=F Big=F
 Integral buffers will be    131072 words long.
 Raffenetti 1 integral format.
 Two-electron integral symmetry is turned on.
 One-electron integrals computed using PRISM.
 NBasis=   192 RedAO= T EigKep=  1.14D-05  NBF=   192
 NBsUse=   192 1.00D-06 EigRej= -1.00D+00 NBFU=   192
 Initial guess from the checkpoint file:  "/scratch/webmo-5066/629738/Gau-155635.chk"
 B after Tr=     0.000000   -0.000000    0.000000
         Rot=    0.999999    0.001292   -0.000287    0.000061 Ang=   0.15 deg.
 ExpMin= 4.38D-02 ExpMax= 6.29D+03 ExpMxC= 9.49D+02 IAcc=3 IRadAn=         5 AccDes= 0.00D+00
 Harris functional with IExCor=  205 and IRadAn=       5 diagonalized for initial guess.
 HarFok:  IExCor=  205 AccDes= 0.00D+00 IRadAn=         5 IDoV= 1 UseB2=F ITyADJ=14
 ICtDFT=  3500011 ScaDFX=  1.000000  1.000000  1.000000  1.000000
 FoFCou: FMM=F IPFlag=           0 FMFlag=      100000 FMFlg1=           0
         NFxFlg=           0 DoJE=T BraDBF=F KetDBF=T FulRan=T
         wScrn=  0.000000 ICntrl=       500 IOpCl=  0 I1Cent=   200000004 NGrid=           0
         NMat0=    1 NMatS0=      1 NMatT0=    0 NMatD0=    1 NMtDS0=    0 NMtDT0=    0
 Petite list used in FoFCou.
 Keep R1 ints in memory in canonical form, NReq=175961462.
 Requested convergence on RMS density matrix=1.00D-08 within 128 cycles.
 Requested convergence on MAX density matrix=1.00D-06.
 Requested convergence on             energy=1.00D-06.
 No special actions if energy rises.
 SCF Done:  E(RHF) =  -246.681937406     A.U. after   12 cycles
            NFock= 12  Conv=0.43D-08     -V/T= 2.0018
 ExpMin= 4.38D-02 ExpMax= 6.29D+03 ExpMxC= 9.49D+02 IAcc=3 IRadAn=         5 AccDes= 0.00D+00
 HarFok:  IExCor=  205 AccDes= 0.00D+00 IRadAn=         5 IDoV=-2 UseB2=F ITyADJ=14
 ICtDFT= 12500011 ScaDFX=  1.000000  1.000000  1.000000  1.000000
 Range of M.O.s used for correlation:     7   192
 NBasis=   192 NAE=    21 NBE=    21 NFC=     6 NFV=     0
 NROrb=    186 NOA=    15 NOB=    15 NVA=   171 NVB=   171

 **** Warning!!: The largest alpha MO coefficient is  0.96500508D+02

 Fully direct method using O(ONN) memory.
 JobTyp=1 Pass  1:  I=   7 to  21 NPSUse= 12 ParTrn=T ParDer=T DoDerP=T.
 Spin components of T(2) and E(2):
     alpha-alpha T2 =       0.4237614379D-01 E2=     -0.1143354893D+00
     alpha-beta  T2 =       0.2374965695D+00 E2=     -0.6688054993D+00
     beta-beta   T2 =       0.4237614379D-01 E2=     -0.1143354893D+00
 ANorm=    0.1149890802D+01
 E2 =    -0.8974764780D+00 EUMP2 =    -0.24757941388444D+03
          IDoAtm=11111111111
          Differentiating once with respect to electric field.
                with respect to dipole field.
          Differentiating once with respect to nuclear coordinates.
 Keep R1 ints in memory in canonical form, NReq=175963160.
          There are     1 degrees of freedom in the 1st order CPHF.  IDoFFX=0 NUNeed=     1.
 LinEq1:  Iter=  0 NonCon=     1 RMS=3.99D-03 Max=3.30D-02 NDo=     1
 AX will form     1 AO Fock derivatives at one time.
 LinEq1:  Iter=  1 NonCon=     1 RMS=1.06D-03 Max=8.94D-03 NDo=     1
 LinEq1:  Iter=  2 NonCon=     1 RMS=3.88D-04 Max=4.18D-03 NDo=     1
 LinEq1:  Iter=  3 NonCon=     1 RMS=2.24D-04 Max=3.80D-03 NDo=     1
 LinEq1:  Iter=  4 NonCon=     1 RMS=7.30D-05 Max=8.19D-04 NDo=     1
 LinEq1:  Iter=  5 NonCon=     1 RMS=3.29D-05 Max=3.87D-04 NDo=     1
 LinEq1:  Iter=  6 NonCon=     1 RMS=1.24D-05 Max=1.30D-04 NDo=     1
 LinEq1:  Iter=  7 NonCon=     1 RMS=3.47D-06 Max=3.94D-05 NDo=     1
 LinEq1:  Iter=  8 NonCon=     1 RMS=9.98D-07 Max=6.87D-06 NDo=     1
 LinEq1:  Iter=  9 NonCon=     1 RMS=2.62D-07 Max=2.64D-06 NDo=     1
 LinEq1:  Iter= 10 NonCon=     1 RMS=8.11D-08 Max=7.46D-07 NDo=     1
 LinEq1:  Iter= 11 NonCon=     1 RMS=2.01D-08 Max=1.50D-07 NDo=     1
 LinEq1:  Iter= 12 NonCon=     1 RMS=4.08D-09 Max=2.74D-08 NDo=     1
 LinEq1:  Iter= 13 NonCon=     1 RMS=1.29D-09 Max=1.22D-08 NDo=     1
 LinEq1:  Iter= 14 NonCon=     1 RMS=3.18D-10 Max=2.82D-09 NDo=     1
 LinEq1:  Iter= 15 NonCon=     0 RMS=7.38D-11 Max=7.42D-10 NDo=     1
 Linear equations converged to 1.000D-10 1.000D-09 after    15 iterations.
 End of Minotr F.D. properties file   721 does not exist.
 End of Minotr F.D. properties file   722 does not exist.
 End of Minotr F.D. properties file   788 does not exist.
 Calling FoFJK, ICntrl=  10002127 FMM=F ISym2X=0 I1Cent= 0 IOpClX= 0 NMat=1 NMatS=1 NMatT=0.
 ***** Axes restored to original set *****
 -------------------------------------------------------------------
 Center     Atomic                   Forces (Hartrees/Bohr)
 Number     Number              X              Y              Z
 -------------------------------------------------------------------
      1        6          -0.000057185    0.000087367    0.001126756
      2        6           0.000170313   -0.000333284   -0.000185264
      3        6           0.000130374    0.000310571   -0.000607646
      4        1          -0.000100261   -0.000080200    0.000138863
      5        1          -0.000100939   -0.000137666    0.000077633
      6        6           0.000010675   -0.000038654   -0.000044392
      7        1          -0.000061615    0.000064385    0.000026203
      8        1          -0.000067225    0.000068237   -0.000001163
      9        6          -0.000242558   -0.000003846   -0.000708485
     10        7           0.000404603    0.000104918    0.000235661
     11        1          -0.000086182   -0.000041829   -0.000058167
 -------------------------------------------------------------------
 Cartesian Forces:  Max     0.001126756 RMS     0.000293025

 GradGradGradGradGradGradGradGradGradGradGradGradGradGradGradGradGradGrad
 Berny optimization.
 Using GEDIIS/GDIIS optimizer.
 FormGI is forming the generalized inverse of G from B-inverse, IUseBI=4.
 Internal  Forces:  Max     0.000470084 RMS     0.000168681
 Search for a local minimum.
 Step number   3 out of a maximum of   50
 All quantities printed in internal units (Hartrees-Bohrs-Radians)
 Mixed Optimization -- En-DIIS/RFO-DIIS
 Update second derivatives using D2CorX and points    1    2    3
 DE= -4.65D-05 DEPred=-4.06D-05 R= 1.14D+00
 TightC=F SS=  1.41D+00  RLast= 2.39D-02 DXNew= 2.2998D-01 7.1768D-02
 Trust test= 1.14D+00 RLast= 2.39D-02 DXMaxT set to 1.37D-01
 ITU=  1  1  0
 Use linear search instead of GDIIS.
     Eigenvalues ---    0.02002   0.02220   0.03216   0.03228   0.03638
     Eigenvalues ---    0.04037   0.04935   0.05289   0.09433   0.10642
     Eigenvalues ---    0.11494   0.13046   0.15503   0.16001   0.17438
     Eigenvalues ---    0.24960   0.26630   0.32041   0.35320   0.35406
     Eigenvalues ---    0.35469   0.35499   0.35563   0.35682   0.39818
     Eigenvalues ---    0.64620   1.30865
 RFO step:  Lambda=-7.18227741D-06 EMin= 2.00167215D-02
 Quartic linear search produced a step of  0.08600.
 Iteration  1 RMS(Cart)=  0.00208303 RMS(Int)=  0.00000314
 Iteration  2 RMS(Cart)=  0.00000350 RMS(Int)=  0.00000151
 Iteration  3 RMS(Cart)=  0.00000000 RMS(Int)=  0.00000151
 Variable       Old X    -DE/DX   Delta X   Delta X   Delta X     New X
                                 (Linear)    (Quad)   (Total)
    R1        2.79644   0.00016  -0.00005   0.00051   0.00046   2.79689
    R2        2.93748   0.00014   0.00023   0.00066   0.00089   2.93837
    R3        2.71968  -0.00001  -0.00001   0.00000  -0.00001   2.71967
    R4        2.05070  -0.00006  -0.00001  -0.00020  -0.00021   2.05049
    R5        2.75882   0.00015   0.00011   0.00036   0.00047   2.75929
    R6        2.50007  -0.00015   0.00008  -0.00011  -0.00004   2.50003
    R7        2.04943  -0.00004  -0.00004  -0.00013  -0.00016   2.04927
    R8        2.05004  -0.00006  -0.00003  -0.00016  -0.00019   2.04984
    R9        2.04892  -0.00003  -0.00003  -0.00009  -0.00012   2.04881
   R10        2.04945  -0.00005  -0.00005  -0.00013  -0.00018   2.04928
   R11        2.21557  -0.00047   0.00059  -0.00015   0.00044   2.21601
    A1        2.08550  -0.00037  -0.00058  -0.00204  -0.00262   2.08288
    A2        2.05768   0.00023   0.00021   0.00164   0.00185   2.05952
    A3        2.07063  -0.00045  -0.00049  -0.00334  -0.00383   2.06680
    A4        2.02857   0.00019   0.00017   0.00135   0.00152   2.03010
    A5        2.00816   0.00024   0.00041   0.00141   0.00183   2.00999
    A6        2.54009   0.00001  -0.00004  -0.00008  -0.00013   2.53996
    A7        2.62824  -0.00001  -0.00005  -0.00002  -0.00007   2.62817
    A8        2.02199  -0.00007   0.00005  -0.00168  -0.00163   2.02036
    A9        2.03193  -0.00015  -0.00016  -0.00158  -0.00173   2.03020
   A10        2.08219   0.00011  -0.00029   0.00064   0.00035   2.08253
   A11        2.06660  -0.00017  -0.00029   0.00012  -0.00018   2.06643
   A12        2.02146   0.00015   0.00049   0.00117   0.00166   2.02311
   A13        2.10879  -0.00006  -0.00031  -0.00044  -0.00075   2.10804
   A14        2.10797  -0.00005  -0.00020  -0.00038  -0.00059   2.10739
   A15        2.06641   0.00011   0.00051   0.00083   0.00134   2.06775
   A16        3.13949   0.00020  -0.00085   0.00437   0.00352   3.14301
   A17        3.13858  -0.00007  -0.00032  -0.00148  -0.00180   3.13678
    D1       -1.23956  -0.00032  -0.00019  -0.00257  -0.00276  -1.24232
    D2        1.34717  -0.00006   0.00002  -0.00016  -0.00014   1.34702
    D3        2.47025   0.00006   0.00088  -0.00064   0.00024   2.47049
    D4        0.00288   0.00010   0.00017   0.00181   0.00197   0.00486
    D5       -0.03966   0.00001   0.00057  -0.00027   0.00030  -0.03936
    D6       -2.50703   0.00005  -0.00015   0.00219   0.00204  -2.50499
    D7       -1.36422  -0.00021   0.00001  -0.00313  -0.00312  -1.36734
    D8        1.26455   0.00002  -0.00006   0.00127   0.00121   1.26576
    D9       -0.01047  -0.00007  -0.00025  -0.00098  -0.00123  -0.01170
   D10        3.12584  -0.00007  -0.00022  -0.00096  -0.00118   3.12466
   D11       -3.08876   0.00005  -0.00001   0.00018   0.00017  -3.08860
   D12        0.04755   0.00005   0.00001   0.00020   0.00022   0.04777
         Item               Value     Threshold  Converged?
 Maximum Force            0.000470     0.000002     NO 
 RMS     Force            0.000169     0.000001     NO 
 Maximum Displacement     0.005212     0.000006     NO 
 RMS     Displacement     0.002084     0.000004     NO 
 Predicted change in Energy=-3.874613D-06
 GradGradGradGradGradGradGradGradGradGradGradGradGradGradGradGradGradGrad

                          Input orientation:                          
 ---------------------------------------------------------------------
 Center     Atomic      Atomic             Coordinates (Angstroms)
 Number     Number       Type             X           Y           Z
 ---------------------------------------------------------------------
      1          6           0        0.005516    0.005999    0.012862
      2          6           0        1.294903   -0.428613   -0.569501
      3          6           0        0.861818    0.925281   -0.903348
      4          1           0        1.334416    1.769816   -0.414075
      5          1           0        0.471137    1.111413   -1.898015
      6          6           0        2.159513   -1.423292   -0.684756
      7          1           0        1.980361   -2.373747   -0.194871
      8          1           0        3.061550   -1.308085   -1.275555
      9          6           0       -1.222094   -0.531742   -0.511606
     10          7           0       -2.220324   -0.974388   -0.939086
     11          1           0       -0.016535    0.263273    1.066762
 ---------------------------------------------------------------------
                    Distance matrix (angstroms):
                    1          2          3          4          5
     1  C    0.000000
     2  C    1.480052   0.000000
     3  C    1.554919   1.460152   0.000000
     4  H    2.249289   2.204271   1.084425   0.000000
     5  H    2.256146   2.194361   1.084729   1.838701   0.000000
     6  C    2.677545   1.322958   2.692134   3.309077   3.278313
     7  H    3.099412   2.096126   3.554808   4.199335   4.162306
     8  H    3.567378   2.095955   3.156784   3.632991   3.598842
     9  C    1.439187   2.519774   2.572754   3.441282   2.736625
    10  N    2.611844   3.576491   3.620720   4.521334   3.537523
    11  H    1.085071   2.208151   2.256345   2.507512   3.122029
                    6          7          8          9         10
     6  C    0.000000
     7  H    1.084181   0.000000
     8  H    1.084430   1.863460   0.000000
     9  C    3.501444   3.707968   4.419947   0.000000
    10  N    4.410121   4.489746   5.303090   1.172663   0.000000
    11  H    3.263050   3.540224   4.174952   2.139314   3.226750
                   11
    11  H    0.000000
 Stoichiometry    C5H5N
 Framework group  C1[X(C5H5N)]
 Deg. of freedom    27
 Full point group                 C1      NOp   1
 Largest Abelian subgroup         C1      NOp   1
 Largest concise Abelian subgroup C1      NOp   1
                         Standard orientation:                         
 ---------------------------------------------------------------------
 Center     Atomic      Atomic             Coordinates (Angstroms)
 Number     Number       Type             X           Y           Z
 ---------------------------------------------------------------------
      1          6           0       -0.225953    0.395253    0.610764
      2          6           0        1.059670   -0.045937    0.025035
      3          6           0        0.624844    1.304461   -0.320503
      4          1           0        1.100692    2.154010    0.156795
      5          1           0        0.228014    1.480116   -1.314640
      6          6           0        1.923300   -1.042057   -0.085011
      7          1           0        1.746973   -1.987187    0.416074
      8          1           0        2.821663   -0.933428   -0.682615
      9          6           0       -1.456942   -0.147657    0.099713
     10          7           0       -2.457928   -0.594517   -0.316798
     11          1           0       -0.241367    0.663738    1.661981
 ---------------------------------------------------------------------
 Rotational constants (GHZ):           7.7584877           2.5541595           2.1233065
 Standard basis: 6-311+G(2d,p) (5D, 7F)
 There are   204 symmetry adapted cartesian basis functions of A   symmetry.
 There are   192 symmetry adapted basis functions of A   symmetry.
   192 basis functions,   292 primitive gaussians,   204 cartesian basis functions
    21 alpha electrons       21 beta electrons
       nuclear repulsion energy       189.6451412112 Hartrees.
 NAtoms=   11 NActive=   11 NUniq=   11 SFac= 1.00D+00 NAtFMM=   60 NAOKFM=F Big=F
 Integral buffers will be    131072 words long.
 Raffenetti 1 integral format.
 Two-electron integral symmetry is turned on.
 One-electron integrals computed using PRISM.
 NBasis=   192 RedAO= T EigKep=  1.14D-05  NBF=   192
 NBsUse=   192 1.00D-06 EigRej= -1.00D+00 NBFU=   192
 Initial guess from the checkpoint file:  "/scratch/webmo-5066/629738/Gau-155635.chk"
 B after Tr=    -0.000000   -0.000000   -0.000000
         Rot=    1.000000    0.000452   -0.000058   -0.000139 Ang=   0.05 deg.
 Keep R1 ints in memory in canonical form, NReq=175961462.
 Requested convergence on RMS density matrix=1.00D-08 within 128 cycles.
 Requested convergence on MAX density matrix=1.00D-06.
 Requested convergence on             energy=1.00D-06.
 No special actions if energy rises.
 SCF Done:  E(RHF) =  -246.681870469     A.U. after   11 cycles
            NFock= 11  Conv=0.46D-08     -V/T= 2.0018
 ExpMin= 4.38D-02 ExpMax= 6.29D+03 ExpMxC= 9.49D+02 IAcc=3 IRadAn=         5 AccDes= 0.00D+00
 HarFok:  IExCor=  205 AccDes= 0.00D+00 IRadAn=         5 IDoV=-2 UseB2=F ITyADJ=14
 ICtDFT= 12500011 ScaDFX=  1.000000  1.000000  1.000000  1.000000
 Range of M.O.s used for correlation:     7   192
 NBasis=   192 NAE=    21 NBE=    21 NFC=     6 NFV=     0
 NROrb=    186 NOA=    15 NOB=    15 NVA=   171 NVB=   171

 **** Warning!!: The largest alpha MO coefficient is  0.96654714D+02

 Fully direct method using O(ONN) memory.
 JobTyp=1 Pass  1:  I=   7 to  21 NPSUse= 12 ParTrn=T ParDer=T DoDerP=T.
 Spin components of T(2) and E(2):
     alpha-alpha T2 =       0.4238623323D-01 E2=     -0.1143476734D+00
     alpha-beta  T2 =       0.2375409416D+00 E2=     -0.6688525394D+00
     beta-beta   T2 =       0.4238623323D-01 E2=     -0.1143476734D+00
 ANorm=    0.1149918870D+01
 E2 =    -0.8975478861D+00 EUMP2 =    -0.24757941835539D+03
          IDoAtm=11111111111
          Differentiating once with respect to electric field.
                with respect to dipole field.
          Differentiating once with respect to nuclear coordinates.
 Keep R1 ints in memory in canonical form, NReq=175963160.
          There are     1 degrees of freedom in the 1st order CPHF.  IDoFFX=0 NUNeed=     1.
 LinEq1:  Iter=  0 NonCon=     1 RMS=3.99D-03 Max=3.31D-02 NDo=     1
 AX will form     1 AO Fock derivatives at one time.
 LinEq1:  Iter=  1 NonCon=     1 RMS=1.06D-03 Max=8.98D-03 NDo=     1
 LinEq1:  Iter=  2 NonCon=     1 RMS=3.88D-04 Max=4.14D-03 NDo=     1
 LinEq1:  Iter=  3 NonCon=     1 RMS=2.24D-04 Max=3.80D-03 NDo=     1
 LinEq1:  Iter=  4 NonCon=     1 RMS=7.35D-05 Max=8.14D-04 NDo=     1
 LinEq1:  Iter=  5 NonCon=     1 RMS=3.30D-05 Max=3.90D-04 NDo=     1
 LinEq1:  Iter=  6 NonCon=     1 RMS=1.25D-05 Max=1.27D-04 NDo=     1
 LinEq1:  Iter=  7 NonCon=     1 RMS=3.47D-06 Max=3.95D-05 NDo=     1
 LinEq1:  Iter=  8 NonCon=     1 RMS=9.97D-07 Max=6.71D-06 NDo=     1
 LinEq1:  Iter=  9 NonCon=     1 RMS=2.62D-07 Max=2.64D-06 NDo=     1
 LinEq1:  Iter= 10 NonCon=     1 RMS=8.11D-08 Max=7.44D-07 NDo=     1
 LinEq1:  Iter= 11 NonCon=     1 RMS=2.00D-08 Max=1.49D-07 NDo=     1
 LinEq1:  Iter= 12 NonCon=     1 RMS=4.05D-09 Max=2.74D-08 NDo=     1
 LinEq1:  Iter= 13 NonCon=     1 RMS=1.27D-09 Max=1.22D-08 NDo=     1
 LinEq1:  Iter= 14 NonCon=     1 RMS=3.16D-10 Max=2.82D-09 NDo=     1
 LinEq1:  Iter= 15 NonCon=     0 RMS=7.32D-11 Max=7.38D-10 NDo=     1
 Linear equations converged to 1.000D-10 1.000D-09 after    15 iterations.
 End of Minotr F.D. properties file   721 does not exist.
 End of Minotr F.D. properties file   722 does not exist.
 End of Minotr F.D. properties file   788 does not exist.
 Calling FoFJK, ICntrl=  10002127 FMM=F ISym2X=0 I1Cent= 0 IOpClX= 0 NMat=1 NMatS=1 NMatT=0.
 ***** Axes restored to original set *****
 -------------------------------------------------------------------
 Center     Atomic                   Forces (Hartrees/Bohr)
 Number     Number              X              Y              Z
 -------------------------------------------------------------------
      1        6           0.000014973    0.000100401    0.000468527
      2        6           0.000051071   -0.000017903   -0.000110784
      3        6           0.000038886    0.000060225   -0.000222109
      4        1           0.000049500   -0.000038605    0.000002342
      5        1          -0.000012978   -0.000019536    0.000019018
      6        6          -0.000102072    0.000065654   -0.000004207
      7        1           0.000019275   -0.000005144   -0.000006234
      8        1           0.000007933   -0.000012464    0.000002947
      9        6          -0.000738640   -0.000478149   -0.000387181
     10        7           0.000781902    0.000391206    0.000278636
     11        1          -0.000109849   -0.000045685   -0.000040956
 -------------------------------------------------------------------
 Cartesian Forces:  Max     0.000781902 RMS     0.000252369

 GradGradGradGradGradGradGradGradGradGradGradGradGradGradGradGradGradGrad
 Berny optimization.
 Using GEDIIS/GDIIS optimizer.
 FormGI is forming the generalized inverse of G from B-inverse, IUseBI=4.
 Internal  Forces:  Max     0.000914837 RMS     0.000160930
 Search for a local minimum.
 Step number   4 out of a maximum of   50
 All quantities printed in internal units (Hartrees-Bohrs-Radians)
 Mixed Optimization -- En-DIIS/RFO-DIIS
 Swapping is turned off.
 Update second derivatives using D2CorX and points    1    2    3    4
 DE= -4.47D-06 DEPred=-3.87D-06 R= 1.15D+00
 TightC=F SS=  1.41D+00  RLast= 9.44D-03 DXNew= 2.2998D-01 2.8318D-02
 Trust test= 1.15D+00 RLast= 9.44D-03 DXMaxT set to 1.37D-01
 ITU=  1  1  1  0
     Eigenvalues ---    0.01983   0.02094   0.03209   0.03228   0.03660
     Eigenvalues ---    0.04027   0.04935   0.05862   0.07813   0.10438
     Eigenvalues ---    0.11753   0.12888   0.15354   0.16001   0.16600
     Eigenvalues ---    0.24957   0.27023   0.32012   0.35297   0.35458
     Eigenvalues ---    0.35479   0.35544   0.35624   0.36067   0.39854
     Eigenvalues ---    0.64266   1.36311
 En-DIIS/RFO-DIIS/Sim-DIIS IScMMF=       -3 using points:     4    3
 RFO step:  Lambda=-2.92936434D-06.
 DidBck=F Rises=F RFO-DIIS coefs:    1.38311   -0.38311
 Iteration  1 RMS(Cart)=  0.00212492 RMS(Int)=  0.00000297
 Iteration  2 RMS(Cart)=  0.00000336 RMS(Int)=  0.00000107
 Iteration  3 RMS(Cart)=  0.00000000 RMS(Int)=  0.00000107
 Variable       Old X    -DE/DX   Delta X   Delta X   Delta X     New X
                                 (Linear)    (Quad)   (Total)
    R1        2.79689   0.00005   0.00018   0.00014   0.00032   2.79721
    R2        2.93837   0.00019   0.00034   0.00083   0.00118   2.93955
    R3        2.71967   0.00004  -0.00000   0.00011   0.00011   2.71978
    R4        2.05049  -0.00005  -0.00008  -0.00015  -0.00023   2.05026
    R5        2.75929  -0.00006   0.00018  -0.00024  -0.00006   2.75923
    R6        2.50003  -0.00008  -0.00001  -0.00006  -0.00007   2.49996
    R7        2.04927  -0.00001  -0.00006  -0.00002  -0.00008   2.04919
    R8        2.04984  -0.00002  -0.00007  -0.00004  -0.00011   2.04973
    R9        2.04881  -0.00000  -0.00004   0.00001  -0.00004   2.04877
   R10        2.04928   0.00000  -0.00007   0.00002  -0.00004   2.04923
   R11        2.21601  -0.00091   0.00017  -0.00057  -0.00040   2.21561
    A1        2.08288  -0.00015  -0.00100  -0.00145  -0.00246   2.08042
    A2        2.05952   0.00013   0.00071   0.00110   0.00181   2.06133
    A3        2.06680  -0.00014  -0.00147  -0.00071  -0.00218   2.06462
    A4        2.03010   0.00013   0.00058   0.00095   0.00153   2.03162
    A5        2.00999   0.00003   0.00070   0.00020   0.00090   2.01089
    A6        2.53996  -0.00004  -0.00005  -0.00023  -0.00028   2.53968
    A7        2.62817  -0.00004  -0.00003  -0.00016  -0.00019   2.62798
    A8        2.02036   0.00003  -0.00062   0.00066   0.00003   2.02039
    A9        2.03020  -0.00003  -0.00066  -0.00019  -0.00086   2.02934
   A10        2.08253   0.00004   0.00013  -0.00084  -0.00071   2.08183
   A11        2.06643  -0.00007  -0.00007   0.00006  -0.00001   2.06642
   A12        2.02311   0.00002   0.00063   0.00031   0.00094   2.02406
   A13        2.10804   0.00002  -0.00029   0.00010  -0.00019   2.10785
   A14        2.10739   0.00001  -0.00022   0.00002  -0.00020   2.10719
   A15        2.06775  -0.00002   0.00051  -0.00012   0.00039   2.06814
   A16        3.14301  -0.00015   0.00135  -0.00387  -0.00252   3.14049
   A17        3.13678   0.00003  -0.00069   0.00075   0.00006   3.13684
    D1       -1.24232  -0.00009  -0.00106   0.00014  -0.00091  -1.24323
    D2        1.34702  -0.00003  -0.00005  -0.00007  -0.00013   1.34689
    D3        2.47049   0.00011   0.00009   0.00290   0.00299   2.47348
    D4        0.00486   0.00007   0.00076   0.00169   0.00245   0.00731
    D5       -0.03936   0.00004   0.00012   0.00212   0.00224  -0.03712
    D6       -2.50499   0.00000   0.00078   0.00091   0.00170  -2.50329
    D7       -1.36734  -0.00002  -0.00120   0.00070  -0.00049  -1.36783
    D8        1.26576  -0.00002   0.00046  -0.00019   0.00028   1.26604
    D9       -0.01170  -0.00003  -0.00047  -0.00048  -0.00096  -0.01266
   D10        3.12466  -0.00003  -0.00045  -0.00033  -0.00078   3.12388
   D11       -3.08860   0.00003   0.00006   0.00028   0.00034  -3.08825
   D12        0.04777   0.00003   0.00008   0.00043   0.00052   0.04828
         Item               Value     Threshold  Converged?
 Maximum Force            0.000915     0.000002     NO 
 RMS     Force            0.000161     0.000001     NO 
 Maximum Displacement     0.006691     0.000006     NO 
 RMS     Displacement     0.002126     0.000004     NO 
 Predicted change in Energy=-1.464059D-06
 GradGradGradGradGradGradGradGradGradGradGradGradGradGradGradGradGradGrad

                          Input orientation:                          
 ---------------------------------------------------------------------
 Center     Atomic      Atomic             Coordinates (Angstroms)
 Number     Number       Type             X           Y           Z
 ---------------------------------------------------------------------
      1          6           0        0.005872    0.006433    0.014958
      2          6           0        1.294707   -0.428369   -0.568912
      3          6           0        0.861508    0.925313   -0.903334
      4          1           0        1.335485    1.769646   -0.415141
      5          1           0        0.468762    1.110482   -1.897302
      6          6           0        2.158825   -1.423335   -0.684942
      7          1           0        1.980095   -2.373297   -0.193990
      8          1           0        3.059868   -1.308546   -1.277294
      9          6           0       -1.220645   -0.532235   -0.511269
     10          7           0       -2.217297   -0.974109   -0.942627
     11          1           0       -0.016918    0.263931    1.068662
 ---------------------------------------------------------------------
                    Distance matrix (angstroms):
                    1          2          3          4          5
     1  C    0.000000
     2  C    1.480220   0.000000
     3  C    1.555542   1.460121   0.000000
     4  H    2.249839   2.203765   1.084383   0.000000
     5  H    2.256087   2.194281   1.084670   1.839158   0.000000
     6  C    2.677555   1.322921   2.692002   3.308446   3.278164
     7  H    3.099085   2.095965   3.554607   4.198620   4.161985
     8  H    3.567348   2.095783   3.156383   3.632089   3.598602
     9  C    1.439243   2.518155   2.571676   3.441176   2.733807
    10  N    2.611688   3.573747   3.617787   4.519811   3.531549
    11  H    1.084951   2.209364   2.257836   2.509551   3.122415
                    6          7          8          9         10
     6  C    0.000000
     7  H    1.084161   0.000000
     8  H    1.084406   1.863639   0.000000
     9  C    3.499291   3.706064   4.417266   0.000000
    10  N    4.406660   4.487348   5.298331   1.172450   0.000000
    11  H    3.264330   3.540809   4.176458   2.139865   3.227956
                   11
    11  H    0.000000
 Stoichiometry    C5H5N
 Framework group  C1[X(C5H5N)]
 Deg. of freedom    27
 Full point group                 C1      NOp   1
 Largest Abelian subgroup         C1      NOp   1
 Largest concise Abelian subgroup C1      NOp   1
                         Standard orientation:                         
 ---------------------------------------------------------------------
 Center     Atomic      Atomic             Coordinates (Angstroms)
 Number     Number       Type             X           Y           Z
 ---------------------------------------------------------------------
      1          6           0       -0.225793    0.396243    0.612748
      2          6           0        1.058996   -0.045548    0.025220
      3          6           0        0.623632    1.304205   -0.322022
      4          1           0        1.100993    2.154106    0.153036
      5          1           0        0.224131    1.477820   -1.315383
      6          6           0        1.922225   -1.041938   -0.085075
      7          1           0        1.746773   -1.986075    0.418142
      8          1           0        2.819216   -0.934214   -0.684857
      9          6           0       -1.455912   -0.148337    0.101221
     10          7           0       -2.455518   -0.595059   -0.318143
     11          1           0       -0.241376    0.666030    1.663505
 ---------------------------------------------------------------------
 Rotational constants (GHZ):           7.7501501           2.5571927           2.1259788
 Standard basis: 6-311+G(2d,p) (5D, 7F)
 There are   204 symmetry adapted cartesian basis functions of A   symmetry.
 There are   192 symmetry adapted basis functions of A   symmetry.
   192 basis functions,   292 primitive gaussians,   204 cartesian basis functions
    21 alpha electrons       21 beta electrons
       nuclear repulsion energy       189.6718101635 Hartrees.
 NAtoms=   11 NActive=   11 NUniq=   11 SFac= 1.00D+00 NAtFMM=   60 NAOKFM=F Big=F
 Integral buffers will be    131072 words long.
 Raffenetti 1 integral format.
 Two-electron integral symmetry is turned on.
 One-electron integrals computed using PRISM.
 NBasis=   192 RedAO= T EigKep=  1.14D-05  NBF=   192
[...]
 -0.00628386,0.00069347,0.00004947,-0.00117386,0.00091916,-0.00180143,0
 .00120877,-0.00632827,-0.02287958,0.00225866,0.00115337,0.00196709,0.0
 0175340,0.00696764,0.00209715,-0.00115734,-0.00143172,-0.00331355,0.00
 153405,0.00024274,0.00098828,-0.00050451,-0.00002476,-0.00179606,-0.00
 126292,0.00041334,-0.00010558,-0.00085133,0.00097843,0.00041591,-0.000
 63669,0.00044564,-0.00225158,-0.00111005,-0.00137337,0.00191434,0.0018
 1761,-0.00008676,0.00336804,0.00019727,-0.00001119,-0.00028094,0.00010
 586,-0.00034802,-0.00108244,0.00108830,0.00136809,0.00146794,-0.001162
 37,0.00090137,0.00309305,-0.00072361,0.00039965,-0.00117109,0.00008635
 ,-0.00012375,0.00135777,-0.00279443,0.00006369,0.00013707,-0.00038708,
 -0.00074711,-0.00082648,-0.00037446,0.00162294,0.00026648,0.00014470,-
 0.00036835,0.00199552,0.00248398,0.00161033,-0.00026089,-0.00001289,0.
 00022355,-0.00119971,-0.00170273,0.00006658,-0.00110744,0.00017243,-0.
 00018998,0.00066287,0.00019553,-0.00449649,0.00194353,-0.00929698,-0.0
 0018457,0.00008651,-0.00000338,0.00478634,-0.00250145,0.00879943,-0.00
 257998,0.00144597,0.00177074,0.00250788,-0.00024922,-0.00008734,0.0000
 5617,-0.00001308,-0.00022840,-0.00010225,-0.00012032,0.00005422,-0.000
 00778,-0.00008222,0.00002677,-0.00044457,0.00247319,-0.00161048,-0.002
 24742,-0.00207515,0.00115085,0.00159722,-0.00002980,0.00036910,-0.0000
 5908,-0.00007588,0.00018691,0.00005680,0.00018748,0.00002096,-0.000128
 26,-0.00057953,-0.00034677,0.00090946,-0.00042380,-0.00101684,-0.00103
 348,0.00031001,-0.00038268,0.00000766,-0.00025099,0.00042028,0.0001991
 5,-0.00012741,-0.00011995,-0.00019471,0.00008556,0.00003068,0.00002953
 ,-0.00031014,0.00084002,-0.00068943,0.00047508,0.00035550,0.00018591,0
 .00015496,-0.00060204,0.00008698,-0.00028109,-0.00000620,-0.00003941,-
 0.00000643,-0.00000060,-0.00002403,-0.00002533,0.00002607,0.00021862,-
 0.00000461,-0.00001308,-0.00020142,-0.00061463,0.00032582,-0.00005038,
 -0.00002867,0.00036474,-0.00013256,0.00018840,-0.00003122,-0.00004683,
 -0.00010730,0.00004114,0.00000960,0.00003018,-0.00004795,-0.00001151,0
 .00026566,-0.00037744,0.00029376,-0.00018871,-0.00012438,-0.00125303,0
 .00077702,0.00042898,0.00047863,0.00043574,-0.00047258,0.00033489,-0.0
 0031212,-0.00007827,-0.00011429,0.00004490,0.00000052,-0.00001306,-0.0
 0006735,0.00002030,-0.00011982,-0.00002597,-0.00033361,0.00003611,-0.0
 0038098,0.00019896,0.00076272,-0.00070144,0.00036459,0.00055799,-0.000
 30132,0.00043083,-0.00029420,0.00010035,-0.00008458,0.00006276,-0.0000
 2345,0.00002770,0.00002982,0.00002331,-0.00001329,-0.00038648,0.000298
 30,0.00046175,0.00015045,0.00000710,0.00002501,-0.00012817,0.00059455,
 -0.00056576,-0.00035374,-0.00031683,-0.00013704,0.00008764,-0.00003644
 ,0.00009823,-0.00002145,0.00003116,-0.00000025,-0.00001274,0.00000350,
 0.00001192,-0.00000908,-0.00000439,0.00015361,-0.00001675,0.00014083,0
 .00013490,0.00009600,-0.00005802,-0.00012809,0.00148001,-0.00130718,-0
 .00020862,0.00003312,-0.00026537,0.00071960,-0.00035362,0.00039923,-0.
 00011327,0.00007141,-0.00001798,-0.00000011,0.00006828,0.00005317,-0.0
 0004252,0.00007153,0.00014124,-0.00037011,0.00017792,-0.00000474,0.000
 10300,-0.00050753,-0.00000136,0.00021773,0.01440621,0.00404976,-0.0055
 0681,0.00090520,0.00074681,0.00002305,0.00030952,-0.00131488,-0.000935
 79,-0.00010523,-0.00009602,0.00020863,-0.00041844,0.00007423,-0.000126
 73,-0.00008655,-0.00006157,0.00003703,0.00006089,0.00001832,0.00017839
 ,-0.00014559,-0.00010183,-0.00022517,-0.00940762,0.01168316,0.00059568
 ,-0.00264653,-0.00095022,0.00003791,-0.00243345,0.00050703,0.00138259,
 0.00199005,0.00037938,-0.00002725,-0.00055526,-0.00035477,-0.00017303,
 0.00014422,-0.00020672,-0.00019132,0.00005822,-0.00001940,-0.00007105,
 -0.00004943,0.00011367,0.00009534,0.00019133,-0.00310696,-0.00332497,0
 .02391805,0.00812917,-0.00656418,0.00190153,-0.00295851,-0.00015711,-0
 .00110319,0.00100876,-0.00122373,-0.00008646,-0.00030191,0.00007953,0.
 00016367,-0.00009260,-0.00009564,-0.00037152,0.00077176,-0.00010077,-0
 .00003068,0.00011859,0.00003295,-0.00009385,0.00002664,-0.00006636,-0.
 00312574,-0.00330742,-0.01023156,-0.00220658,-0.00108648,-0.00298055,0
 .00011916,-0.00047637,0.00027420,-0.00025521,0.00045046,0.00039294,0.0
 0009439,-0.00003168,-0.00007900,0.00009173,0.00002193,0.00005667,-0.00
 001590,0.00012976,-0.00001998,0.00000547,0.00002418,-0.00000228,-0.000
 00495,-0.00000763,-0.00000319,0.00413558,0.00014396,-0.00161029,-0.001
 64083,-0.00066633,-0.00136118,-0.00147746,0.00030931,-0.00023967,0.000
 45782,-0.00021230,-0.00009094,-0.00014601,-0.00002057,-0.00001297,0.00
 005973,0.00003271,0.00003581,0.00001353,0.00003990,0.00013108,-0.00001
 243,0.00001397,0.00002194,0.00001926,-0.00002348,-0.00003399,-0.000041
 28,0.00051252,0.00188048,-0.00051149,0.00021655,-0.00094827,-0.0009492
 6,-0.00079523,-0.00217576,-0.00019458,0.00033771,0.00021876,0.00009273
 ,-0.00003332,0.00027583,0.00004887,0.00001121,-0.00004526,-0.00001933,
 0.00001870,0.00003988,0.00004143,-0.00009173,-0.00000854,0.00001537,-0
 .00000175,0.00001092,-0.00000242,-0.00000819,-0.00000242,-0.00031416,-
 0.00009320,0.00212002,0.00089785,0.00057283,-0.00034001,0.66591993,0.0
 1515004,0.10002182,-0.00336437,0.00198037,0.01576350,-0.00252737,0.002
 39230,0.00312665,0.00082644,0.00016774,-0.00074598,-0.00016516,0.00001
 314,0.00004863,0.00084066,-0.00026190,-0.00038331,0.00024597,0.0004054
 6,0.00044945,-0.00060435,-0.00024492,-0.00081276,-0.00965375,-0.008189
 04,-0.01956156,-0.00032288,-0.00020230,0.00038350,-0.65119512,0.014497
 68,0.47653588,-0.89101926,-0.00228370,-0.00200860,-0.00679916,-0.00085
 288,0.00314716,0.01686170,0.00226110,0.00060577,-0.00325427,-0.0021162
 1,-0.00038631,0.00090708,-0.00049572,0.00051324,0.00039401,-0.00025928
 ,-0.00023648,-0.00053708,0.00056497,0.00037112,0.00085293,-0.00072040,
 -0.00020440,-0.00288301,0.00061533,0.00061770,0.00008297,-0.01121090,-
 0.47895509,0.10067096,-0.89037470,-2.99457803,-0.00723163,0.00367915,0
 .00855377,-0.00421531,-0.00538248,0.00607311,-0.00106884,-0.00121396,-
 0.00014040,-0.00097244,-0.00058451,0.00018028,-0.00118715,0.00029564,0
 .00104148,0.00004164,0.00020680,0.00008884,-0.00060821,0.00021304,-0.0
 0023692,0.00978726,0.00670146,0.01620685,0.00307364,0.00106549,-0.0000
 9344,-0.09828994,0.88539407,2.96290444,-0.00622394,-0.00693606,-0.0050
 5929,0.00190500,0.00749335,0.00394643,-0.00025185,0.00035396,0.0026901
 4,0.00109746,0.00121781,0.00074357,0.00010077,0.00981870,-0.02784829,0
 .00178745,0.00132370,0.00219196,-0.00582037,0.00547555,-0.00114190,0.0
 0245008,0.01169808,-0.00936828,-0.00318124,-0.01643876,0.00154132,-0.0
 8798463,0.00143016,-0.00229385,-0.00259464,-0.01277142,0.02636908,-0.0
 0897258,0.57361413,0.61331361,-0.00628590,-0.00927215,-0.00044999,-0.0
 0006251,-0.00662701,-0.00957827,1.04235432,0.34842858,1.35255622,-0.00
 039739,-0.00244119,-0.00191064,0.00179398,0.00780228,0.00226481,-0.017
 04322,-0.70594174,-0.38062551,0.01565732,0.00337411,0.00448354,-0.0008
 6092,0.00024111,-0.00063992,-0.00060929,-0.70637527,-0.92061916,-0.696
 37574,0.69973087,0.92091454,0.00414366,0.00568505,0.00123057,-0.000684
 89,0.00581157,0.00109220,-0.38076426,-0.69986920,-0.00905131,0.3758839
 4,0.68926337,0.00425034,0.00024099,-0.00338535,0.00748692,0.00037827,-
 0.00082449,-0.00137577,0.10981661,0.14052452,-0.65667649,-0.00078978,0
 .00353861,0.00235610,-0.11111660,0.00028129,0.00107556,-0.00088305,0.0
 0359595,-0.00391671,0.00409401,0.13749873,0.28844781,0.36092090,-0.000
 41257,-0.00568670,0.00011596,-0.14056977,-0.28091517,-0.00130113,-0.00
 177290,0.00365071,0.00295756,-0.00457522,0.00615112,-0.65549254,0.3627
 2493,-1.33274768,0.00547285,0.00951256,0.00253125,0.64911990,-0.364012
 66,1.32034831,0.00000338,-0.00015142,-0.00006329,0.00072013,-0.0023789
 8,0.00085626,-0.00159232,0.00451298,-0.00145621,0.00047472,-0.00080723
 ,0.00061823,0.00015431,-0.00108528,0.00017888,0.00043321,0.00023004,0.
 00015005,-0.00005336,-0.00091462,0.00369081,-0.00103295,0.00086535,-0.
 00520989,0.00151666,0.00041747,0.00136462,-0.00017457,0.00002880,0.000
 97394,-0.00076082,-0.00022955,-0.00037229,-0.00022057,-0.00002008,0.00
 005098,0.00029732,-0.00001562,0.00054080,0.00020498,-0.00080519,-0.000
 38826,-0.00030632,0.00014312,-0.00000732,0.00009627,0.00025026,0.00037
 128,0.00000916,0.00052150,-0.00005705,-0.00005830,0.00005353,-0.000110
 89,0.00026749,-0.00011003,0.00040181,0.00018934,0.00015555,0.00005618,
 -0.00050820,-0.00004209,-0.00011027,0.00010535,-0.00009447,-0.00012388
 ,-0.00006252,-0.00005151,-0.00009550,-0.00010415,-0.00011373,-0.000021
 23,0.00001407,-0.00005550,0.00065384,0.00001277,-0.00007395,-0.0003628
 0,0.00034596,0.00003965,0.00010873,0.00002638,0.00014808,-0.00014346,-
 0.00042752,0.00001310,-0.00035925,0.00001831,0.00002684,0.00005932,-0.
 00003152,-0.00003925,-0.00016939,0.00032179,0.00016637,0.00050143,0.00
 012867,0.00013320,0.00023381,-0.00055074,-0.00001779,-0.00007457,0.000
 23462,-0.00027330,-0.00044977,-0.00010235,0.00008220,-0.00015574,-0.00
 010444,-0.00010010,-0.00018167,0.00010538,-0.00005249,-0.00004689,0.00
 009117,-0.00023361,0.00001471,-0.00004566,0.00014194,-0.00020119,0.000
 14288,-0.00002666,0.00002081,-0.00006672,0.00006667,0.00026513,-0.0004
 6279,0.00008632,0.00003026,0.00016175,0.00003830,0.00008338,0.00007995
 ,-0.00010180,-0.00003768,0.00005511,0.00000011,0.00007466,-0.00004790,
 -0.00006191,-0.00005840,-0.00003635,0.00016685,-0.00000230,-0.00000015
 ,-0.00000604,0.00004711,0.00010353,-0.00002715,-0.00001201,-0.00011259
 ,0.00005755,0.00008603,0.00004964,-0.00002057,-0.00010146,-0.00001009,
 -0.00001450,0.00003427,-0.00013909,0.00006651,-0.00002942,-0.00004773,
 -0.00012681,-0.00017297,0.00033002,0.00006885,0.00007517,-0.00014452,0
 .00015365,0.00027140,0.00010426,-0.00021963,-0.00030028,0.00006479,0.0
 0007334,0.00025441,-0.00013980,-0.00001001,-0.00008947,0.00075278,0.00
 051667,-0.00111696,-0.00044193,0.00081157,0.00033582,-0.00209365,-0.00
 111574,0.00150699,0.00009241,0.00007584,-0.00077913,0.00148247,0.00049
 348,-0.00056270,0.00032706,-0.00042589,-0.00009572,-0.00005931,-0.0000
 3845,-0.00007962,0.00005039,0.00005491,0.00010001,-0.00140763,-0.00017
 611,-0.00060216,-0.00081889,-0.00002670,0.00064192,0.00003306,-0.00049
 736,-0.00013450,-0.00031488,-0.00045038,0.00035819,0.00069352,0.001532
 44,0.00014041,-0.00003235,0.00017265,-0.00015925,0.00009723,0.00000743
 ,-0.00000111,0.00000635,-0.00004729,-0.00001256,-0.00005044,-0.0004207
 7,-0.00075587,0.00005590,0.00032533,0.00106175,0.00011697,-0.00023744,
 0.00000831,0.00039192,0.00004476,0.00036080,0.00012812,-0.00043044,-0.
 00055261,-0.00116861,-0.00029445,0.00005109,0.00000254,0.00001236,-0.0
 0005066,0.00001400,0.00003824,0.00002367,-0.00003414,-0.00000016,-0.00
 003365,0.00020769,0.00065612,-0.00127100,0.00010655,-0.00003560,0.0002
 0339,-0.00004270,-0.00004756,0.00002816,0.00029566,-0.00016689,0.00015
 688,-0.00003390,0.00018178,0.00005447,-0.00025051,0.00007194,-0.000234
 72,-0.00006435,0.00010400,0.00001577,0.00001871,0.00000783,0.00001944,
 -0.00000758,-0.00001789,-0.00001410,0.00138797,0.00004434,0.00042085,-
 0.00142547,0.00017004,0.00004778,0.00018301,0.00002939,-0.00001660,0.0
 0002584,-0.00013625,-0.00025685,0.00015910,0.00007987,0.00009697,-0.00
 008976,-0.00015231,0.00003580,-0.00015601,-0.00002781,0.00003436,-0.00
 001736,-0.00000019,-0.00000264,0.00000308,0.00000431,-0.00000809,-0.00
 000445,0.00020812,0.00020857,-0.00000417,-0.00017810,-0.00008049,0.000
 18616,-0.00002270,-0.00012355,-0.00005363,0.00008165,0.00002437,0.0000
 6672,-0.00008434,0.00019165,-0.00004887,-0.00002254,0.00004364,0.00005
 878,0.00019032,-0.00020198,-0.00001989,0.00001114,0.00000060,0.0000040
 6,-0.00000465,0.00000568,0.00000760,-0.00000355,0.00000361,0.00045116,
 -0.00000455,0.00043957,-0.00062926,-0.00013720,-0.00036210,0.00327226,
 0.00037970,0.00033155,-0.00043066,0.00038281,-0.00003424,-0.00081087,-
 0.00038345,0.00123343,0.00061118,0.00010893,-0.00073868,0.00004560,0.0
 0015403,-0.00027935,0.00006890,-0.00010999,0.00006440,0.00004984,0.000
 00784,0.00008077,-0.00004878,-0.00004406,-0.00010377,-0.00009043,-0.00
 013830,-0.00013530,0.00001559,0.00000294,-0.00002283,-0.00268264,0.000
 62427,0.00151367,-0.00263540,-0.00027109,0.00024776,-0.00030221,-0.000
 09292,0.00080494,0.00125492,0.00100889,-0.00037851,-0.00146216,-0.0008
 3448,-0.00005860,-0.00060355,0.00000888,-0.00010117,-0.00005956,-0.000
 00262,-0.00001743,-0.00001039,0.00004307,0.00002471,0.00006348,-0.0001
 5971,0.00031636,-0.00011021,0.00003616,-0.00005880,-0.00000358,-0.0003
 6045,-0.00229293,-0.00022897,-0.00368579,-0.01142377,0.00037677,-0.000
 24717,0.00023946,0.00098493,0.00112120,-0.00095398,-0.00063767,-0.0006
 7119,0.00046264,0.00001278,-0.00026163,0.00002427,-0.00012767,0.000097
 55,-0.00000442,0.00000414,0.00000321,0.00001214,0.00000013,0.00000243,
 -0.00001306,0.00003242,-0.00026518,-0.00003724,-0.00002089,0.00003790,
 -0.00002149,-0.00039598,0.00386867,0.01171546,-0.00178953,-0.00013731,
 -0.00269143,0.00056284,0.00073351,-0.00111691,0.00340270,-0.00374696,0
 .00091991,-0.02438971,-0.00108407,0.00627581,-0.00175147,0.02554468,-0
 .03225802,-0.00062910,0.00031942,0.00170570,0.00717397,0.00014756,0.00
 081007,0.00005807,0.00203398,-0.00081405,0.00549206,-0.00444780,-0.000
 68414,-0.00255844,-0.00016041,-0.00008641,0.00018678,-0.00046156,0.003
 70230,-0.00073069,0.00018064,-0.00207096,0.00005551,-0.00108697,0.0003
 5606,-0.00215992,0.00149415,0.00203284,0.00118439,0.00061846,-0.001438
 97,-0.00018239,-0.00019981,0.00008402,-0.00048249,0.00093648,-0.000214
 23,0.00011827,-0.00043444,-0.00016067,0.00013833,-0.00001144,0.0001853
 1,-0.00002076,0.00057910,-0.00055042,0.00012761,-0.00032154,0.00009653
 ,-0.00018637,0.00022619,-0.00019915,0.00012982,0.00000168,0.00005145,-
 0.00027031,0.00011143,0.00001328,-0.00025370,-0.00021840,-0.00003568,0
 .00023415,0.00000812,0.00003044,-0.00002038,-0.00004115,0.00025758,-0.
 00015926,0.00053016,-0.00009283,0.00014559,-0.00016964,-0.00017688,0.0
 0009623,-0.00006366,-0.00006793,-0.00022018,-0.00002765,0.00015853,-0.
 00002428,0.00049186,-0.00084089,-0.00019560,-0.00010198,0.00033331,-0.
 00010487,0.00001826,0.00001384,0.00005848,0.00012582,-0.00010836,0.000
 09889,0.00002457,-0.00005145,0.00008566,-0.00034665,0.00009350,-0.0001
 5460,0.00001749,-0.00039900,0.00002223,-0.00000565,0.00003937,-0.00001
 164,0.00016041,0.00032387,-0.00291710,0.00485366,-0.00106202,0.0122070
 5,-0.03541644,0.00005605,-0.00498545,0.00281983,0.00073634,0.00074691,
 -0.00053829,0.00011872,0.00028421,-0.00053095,-0.00018777,0.68018766,0
 .00374426,-0.00523018,0.00017387,-0.03545823,0.01959184,0.00798799,0.0
 0539916,-0.00290874,-0.00245094,-0.00061237,0.00054637,-0.00019883,-0.
 00038366,0.00074078,0.00022846,0.44128326,0.90770118,-0.00020314,-0.00
 122360,-0.00013200,-0.00027022,0.00805211,-0.01559436,0.00014431,-0.00
 091353,-0.00077522,0.00002209,-0.00002821,-0.00003001,-0.00019331,0.00
 016228,0.00014590,-1.04312461,-0.93354113,0.26723502,0.00020624,-0.001
 44948,-0.00062303,-0.00272996,0.01210663,-0.00208561,0.00106819,0.0000
 7908,0.00105074,-0.00038296,0.00029500,0.00000322,0.00003978,-0.000059
 93,0.00002462,0.34235215,-0.27669831,0.14130382,-0.33740165,-0.0017832
 9,0.00052163,0.00004123,0.00124168,0.00869417,-0.00332069,-0.00108489,
 0.00083887,0.00142092,-0.00008310,0.00007594,0.00012398,0.00005210,-0.
 00025648,-0.00006008,-0.27047811,-1.27156776,0.83503909,0.26300583,1.2
 6497073,-0.00041204,-0.00008837,-0.00163233,0.00236628,-0.00985090,0.0
 0494075,0.00138038,0.00081180,0.00151565,-0.00021306,0.00024821,-0.000
 05704,0.00037353,-0.00036165,-0.00012179,0.13865700,0.83861098,-0.0316
 8648,-0.13774924,-0.82728218,0.02778214,0.00134565,-0.00123169,0.00119
 197,0.00771614,0.00034912,-0.00357703,0.00043253,-0.00156242,-0.000506
 13,0.00000752,-0.00016527,0.00008097,-0.00012341,0.00010184,0.00007798
 ,-1.02914491,-0.13605074,0.90268240,-0.00299140,0.00933587,-0.00461469
 ,1.02314500,-0.00025109,0.00074764,0.00069079,0.01055982,-0.00391206,-
 0.00376788,-0.00129701,0.00031717,-0.00002821,0.00013595,-0.00013038,0
 .00006944,-0.00003974,0.00002261,-0.00003475,-0.14123816,0.35012938,0.
 09227354,0.00270063,-0.00322995,-0.00200981,0.12924318,-0.34365990,0.0
 0057431,0.00141413,0.00140011,-0.00765850,0.00239414,0.00587816,-0.000
 72120,-0.00001769,-0.00140425,0.00018149,-0.00018083,0.00002087,-0.000
 09718,0.00032962,-0.00001271,0.90485890,0.08912342,-0.21924891,-0.0019
 5318,-0.00606763,-0.00070003,-0.89537328,-0.08716411,0.21411702,-0.000
 16030,-0.00011148,-0.00043614,-0.00035447,0.00096853,0.00011504,-0.000
 00137,-0.00021811,-0.00001281,-0.00000597,-0.00005769,0.00006971,-0.00
 003879,0.00001035,0.00003708,0.00075371,-0.00068993,-0.00034866,-0.000
 26236,-0.00013545,-0.00017929,-0.00024057,0.00012815,0.00057418,-0.000
 60638,-0.00020930,0.00020433,-0.00002621,0.00066035,-0.00044784,-0.000
 44807,-0.00033757,-0.00015830,0.00008530,-0.00002605,-0.00001143,0.000
 03953,0.00003529,-0.00006840,-0.00000229,-0.00031569,0.00056868,0.0002
 4628,0.00007352,0.00014166,0.00009025,-0.00026347,-0.00031636,-0.00015
 136,0.00003717,-0.00059818,-0.00018388,-0.00000645,-0.00004472,0.00007
 542,-0.00039505,-0.00007153,-0.00016288,0.00018679,0.00014906,0.000045
 25,0.00003190,-0.00002125,-0.00000172,-0.00005334,-0.00001774,-0.00018
 995,0.00019348,0.00004751,0.00008437,0.00012749,0.00000060,0.00000708,
 -0.00008846,-0.00003015,-0.00004895,-0.00005776,-0.00038594,-0.0000216
 3,0.00005745,0.00008312,0.00004731,-0.00011697,-0.00001121,0.00000330,
 0.00001602,0.00005281,0.00001113,0.00000135,-0.00002169,0.00000692,0.0
 0000282,-0.00000051,-0.00013004,0.00020925,0.00003542,0.00003421,-0.00
 013808,0.00003448,0.00012746,-0.00001809,-0.00009943,0.00087246,0.0003
 6318,0.00032057,-0.00096494,0.00006207,-0.00020526,0.00000489,-0.00007
 859,0.00008604,0.00009661,0.00004300,-0.00000037,-0.00001947,-0.000004
 49,0.00000236,-0.00000435,-0.00000405,0.00001904,0.00000817,0.00003699
 ,-0.00002452,-0.00003006,0.00002906,-0.00011095,-0.00001925,0.00008290
 ,0.00006533,0.00000071,0.00020614,0.00054383,0.00016154,-0.00038068,-0
 .00034982,0.00007925,-0.00003553,-0.00010560,-0.00004383,0.00012138,0.
 00002870,0.00006084,-0.00004572,0.00001655,-0.00000187,-0.00000797,-0.
 00000537,-0.00000047,0.00001309,-0.00000045,0.00002787,0.00002027,-0.0
 0001260,-0.00001369,-0.00009266,0.00001259,0.00005267,0.00000140,-0.00
 001390,0.00024820,0.00021669,0.00034285,-0.00038488,-0.00019191,-0.000
 24473,0.00007863,-0.00002743,-0.00016412,-0.00074924,0.00062953,-0.000
 05096,0.00022728,-0.00008880,-0.00006344,-0.00006458,0.00005625,-0.000
 02296,-0.00001070,-0.00003044,0.00000806,0.00064561,-0.00074260,-0.000
 04798,0.00006776,0.00006744,0.00035666,-0.00027402,0.00007633,-0.00028
 610,0.00004412,-0.00001735,0.00005458,0.00001379,0.00000765,-0.0000241
 0,0.00002136,-0.00014170,0.00011996,-0.00000829,0.00066779,-0.00034077
 ,-0.00021630,-0.00006605,-0.00006328,0.00025796,0.00004336,-0.00002897
 ,0.00000894,-0.00004146,-0.00001400,0.00001032,-0.00047599,0.00045277,
 -0.00003673,-0.00008204,-0.00007786,-0.00014908,0.00016067,-0.00003349
 ,0.00031959,-0.00013774,0.00014197,-0.00010018,0.00000375,-0.00002570,
 0.00000097,0.00006942,-0.00013063,-0.00007246,-0.00005229,-0.00043032,
 -0.00021842,0.00002331,0.00016293,0.00002068,0.00010461,-0.00001702,0.
 00000057,0.00001395,-0.00000606,0.00001087,0.00001587,0.00000049,0.000
 10941,-0.00014755,0.00005113,-0.00004203,0.00007054,-0.00005405,-0.000
 02193,0.00005804,-0.00000620,-0.00001838,0.00000761,0.00003129,-0.0000
 0868,-0.00000688,-0.00001804,0.00024036,-0.00008721,0.00028587\\@
 The archive entry for this job was punched.


 YOU CAN WIPE THE SLATE CLEAN, BUT YOU'LL STILL
 HAVE TO EAT A LITTLE CHALK DUST.
 Job cpu time:       2 days 21 hours 50 minutes 53.2 seconds.
 Elapsed time:       0 days  5 hours 54 minutes 12.5 seconds.
 File lengths (MBytes):  RWF=   5933 Int=      0 D2E=      0 Chk=     47 Scr=      1
 Normal termination of Gaussian 16 at Thu Sep 22 12:31:41 2022.
